 argument  1 = h2o_b3lyp_6-31g.nw
                                         
                                         


             Northwest Computational Chemistry Package (NWChem) 7.0.2
             --------------------------------------------------------


                    Environmental Molecular Sciences Laboratory
                       Pacific Northwest National Laboratory
                                Richland, WA 99352

                              Copyright (c) 1994-2020
                       Pacific Northwest National Laboratory
                            Battelle Memorial Institute

             NWChem is an open-source computational chemistry package
                        distributed under the terms of the
                      Educational Community License (ECL) 2.0
             A copy of the license is included with this distribution
                              in the LICENSE.TXT file

                                  ACKNOWLEDGMENT
                                  --------------

            This software and its documentation were developed at the
            EMSL at Pacific Northwest National Laboratory, a multiprogram
            national laboratory, operated for the U.S. Department of Energy
            by Battelle under Contract Number DE-AC05-76RL01830. Support
            for this work was provided by the Department of Energy Office
            of Biological and Environmental Research, Office of Basic
            Energy Sciences, and the Office of Advanced Scientific Computing.


           Job information
           ---------------

    hostname        = DESKTOP-M7D5GNM
    program         = /usr/bin/nwchem.openmpi
    date            = Thu Oct 10 15:06:44 2024

    compiled        = Sat_Apr_09_17:12:10_2022
    source          = /build/nwchem-f1f4gx/nwchem-7.0.2/build-openmpi
    nwchem branch   = 7.0.2
    nwchem revision = N/A
    ga revision     = 5.8.1
    use scalapack   = T
    input           = h2o_b3lyp_6-31g.nw
    prefix          = h2o.
    data base       = ./h2o.db
    status          = startup
    nproc           =        2
    time left       =     -1s



           Memory information
           ------------------

    heap     =   13107194 doubles =    100.0 Mbytes
    stack    =   13107199 doubles =    100.0 Mbytes
    global   =   26214400 doubles =    200.0 Mbytes (distinct from heap & stack)
    total    =   52428793 doubles =    400.0 Mbytes
    verify   = yes
    hardfail = no 


           Directory information
           ---------------------

  0 permanent = .
  0 scratch   = .




                                NWChem Input Module
                                -------------------


                             Water in 6-31g basis set
                             ------------------------
 C2V symmetry detected


                             Geometry "geometry" -> ""
                             -------------------------

 Output coordinates in a.u. (scale by  1.000000000 to convert to a.u.)

  No.       Tag          Charge          X              Y              Z
 ---- ---------------- ---------- -------------- -------------- --------------
    1 O                    8.0000     0.00000000     0.00000000     0.22143053
    2 H                    1.0000    -1.43042809     0.00000000    -0.88572213
    3 H                    1.0000     1.43042809     0.00000000    -0.88572213

      Atomic Mass 
      ----------- 

      O                 15.994910
      H                  1.007825


 Effective nuclear repulsion energy (a.u.)       9.1949809303

            Nuclear Dipole moment (a.u.) 
            ----------------------------
        X                 Y               Z
 ---------------- ---------------- ----------------
     0.0000000000     0.0000000000     0.0000000000

      Symmetry information
      --------------------

 Group name             C2v       
 Group number             16
 Group order               4
 No. of unique centers     2

      Symmetry unique atoms

     1    2


            XYZ format geometry
            -------------------
     3
 geometry
 O                     0.00000000     0.00000000     0.11717600
 H                    -0.75695000     0.00000000    -0.46870400
 H                     0.75695000     0.00000000    -0.46870400

 ==============================================================================
                                internuclear distances
 ------------------------------------------------------------------------------
       center one      |      center two      | atomic units |       a.u.
 ------------------------------------------------------------------------------
    2 H                |   1 O                |     1.80884  |     1.80884
    3 H                |   1 O                |     1.80884  |     1.80884
 ------------------------------------------------------------------------------
                         number of included internuclear distances:          2
 ==============================================================================



 ==============================================================================
                                 internuclear angles
 ------------------------------------------------------------------------------
        center 1       |       center 2       |       center 3       |  degrees
 ------------------------------------------------------------------------------
    2 H                |   1 O                |   3 H                |   104.52
 ------------------------------------------------------------------------------
                            number of included internuclear angles:          1
 ==============================================================================



                      Basis "ao basis" -> "" (cartesian)
                      -----
  H (Hydrogen)
  ------------
            Exponent  Coefficients 
       -------------- ---------------------------------------------------------
  1 S  1.87311370E+01  0.033495
  1 S  2.82539370E+00  0.234727
  1 S  6.40121700E-01  0.813757

  2 S  1.61277800E-01  1.000000

  O (Oxygen)
  ----------
            Exponent  Coefficients 
       -------------- ---------------------------------------------------------
  1 S  5.48467170E+03  0.001831
  1 S  8.25234950E+02  0.013950
  1 S  1.88046960E+02  0.068445
  1 S  5.29645000E+01  0.232714
  1 S  1.68975700E+01  0.470193
  1 S  5.79963530E+00  0.358521

  2 S  1.55396160E+01 -0.110778
  2 S  3.59993360E+00 -0.148026
  2 S  1.01376180E+00  1.130767

  3 P  1.55396160E+01  0.070874
  3 P  3.59993360E+00  0.339753
  3 P  1.01376180E+00  0.727159

  4 S  2.70005800E-01  1.000000

  5 P  2.70005800E-01  1.000000



 Summary of "ao basis" -> "" (cartesian)
 ------------------------------------------------------------------------------
       Tag                 Description            Shells   Functions and Types
 ---------------- ------------------------------  ------  ---------------------
 H                           6-31g                   2        2   2s
 O                           6-31g                   5        9   3s2p



                                 NWChem DFT Module
                                 -----------------


                             Water in 6-31g basis set




 Summary of "ao basis" -> "ao basis" (cartesian)
 ------------------------------------------------------------------------------
       Tag                 Description            Shells   Functions and Types
 ---------------- ------------------------------  ------  ---------------------
 H                           6-31g                   2        2   2s
 O                           6-31g                   5        9   3s2p


      Symmetry analysis of basis
      --------------------------

        a1          7
        a2          0
        b1          4
        b2          2

  Caching 1-el integrals 

            General Information
            -------------------
          SCF calculation type: DFT
          Wavefunction type:  closed shell.
          No. of atoms     :     3
          No. of electrons :    10
           Alpha electrons :     5
            Beta electrons :     5
          Charge           :     0
          Spin multiplicity:     1
          Use of symmetry is: on ; symmetry adaption is: on 
          Maximum number of iterations:  30
          AO basis - number of functions:    13
                     number of shells:     9
          Convergence on energy requested:  1.00D-06
          Convergence on density requested:  1.00D-05
          Convergence on gradient requested:  5.00D-04

              XC Information
              --------------
                         B3LYP Method XC Potential
                     Hartree-Fock (Exact) Exchange  0.200          
                        Slater Exchange Functional  0.800 local    
                    Becke 1988 Exchange Functional  0.720 non-local
              Lee-Yang-Parr Correlation Functional  0.810          
                  VWN I RPA Correlation Functional  0.190 local    

             Grid Information
             ----------------
          Grid used for XC integration:  medium    
          Radial quadrature: Mura-Knowles        
          Angular quadrature: Lebedev. 
          Tag              B.-S. Rad. Rad. Pts. Rad. Cut. Ang. Pts.
          ---              ---------- --------- --------- ---------
          O                   0.60       49           5.0       434
          H                   0.35       45           6.0       434
          Grid pruning is: on 
          Number of quadrature shells:    94
          Spatial weights used:  Erf1

          Convergence Information
          -----------------------
          Convergence aids based upon iterative change in 
          total energy or number of iterations. 
          Levelshifting, if invoked, occurs when the 
          HOMO/LUMO gap drops below (HL_TOL):  1.00D-02
          DIIS, if invoked, will attempt to extrapolate 
          using up to (NFOCK): 10 stored Fock matrices.

                    Damping( 0%)  Levelshifting(0.5)       DIIS
                  --------------- ------------------- ---------------
          dE  on:    start            ASAP                start   
          dE off:    2 iters         30 iters            30 iters 


      Screening Tolerance Information
      -------------------------------
          Density screening/tol_rho:  1.00D-10
          AO Gaussian exp screening on grid/accAOfunc:  14
          CD Gaussian exp screening on grid/accCDfunc:  20
          XC Gaussian exp screening on grid/accXCfunc:  20
          Schwarz screening/accCoul:  1.00D-08


      Superposition of Atomic Density Guess
      -------------------------------------

 Sum of atomic energies:         -75.75081731

      Non-variational initial energy
      ------------------------------

 Total energy =     -75.919497
 1-e energy   =    -121.734217
 2-e energy   =      36.619739
 HOMO         =      -0.469044
 LUMO         =       0.116432


      Symmetry analysis of molecular orbitals - initial
      -------------------------------------------------

  Numbering of irreducible representations: 

     1 a1          2 a2          3 b1          4 b2      

  Orbital symmetries:

     1 a1          2 a1          3 b1          4 a1          5 b2      
     6 a1          7 b1          8 b1          9 b2         10 a1      
    11 a1         12 b1         13 a1      

   Time after variat. SCF:      0.1
   Time prior to 1st pass:      0.1

 #quartets = 6.670D+02 #integrals = 1.513D+03 #direct =  0.0% #cached =100.0%


 Integral file          = ./h2o.aoints.0
 Record size in doubles =  65536        No. of integs per rec  =  43688
 Max. records in memory =      2        Max. records in file   = 926954
 No. of bits per label  =      8        No. of bits per value  =     64


File balance: exchanges=     0  moved=     0  time=   0.0


 Grid_pts file          = ./h2o.gridpts.0
 Record size in doubles =  12289        No. of grid_pts per rec  =   3070
 Max. records in memory =      9        Max. recs in file   =   4943357


           Memory utilization after 1st SCF pass: 
           Heap Space remaining (MW):       12.86            12864234
          Stack Space remaining (MW):       13.11            13106972

   convergence    iter        energy       DeltaE   RMS-Dens  Diis-err    time
 ---------------- ----- ----------------- --------- --------- ---------  ------
 d= 0,ls=0.0,diis     1    -76.3458783279 -8.55D+01  5.56D-02  3.45D-01     0.2
 d= 0,ls=0.0,diis     2    -76.3425695349  3.31D-03  2.80D-02  4.61D-01     0.2
 d= 0,ls=0.0,diis     3    -76.3842785640 -4.17D-02  2.86D-03  7.11D-03     0.3
 d= 0,ls=0.0,diis     4    -76.3849159413 -6.37D-04  1.12D-04  3.87D-06     0.3
 d= 0,ls=0.0,diis     5    -76.3849164382 -4.97D-07  1.18D-05  8.45D-09     0.3
 d= 0,ls=0.0,diis     6    -76.3849164404 -2.16D-09  1.02D-06  9.84D-11     0.3


         Total DFT energy =      -76.384916440376
      One electron energy =     -123.060527324235
           Coulomb energy =       46.842839697609
    Exchange-Corr. energy =       -9.362209744025
 Nuclear repulsion energy =        9.194980930276

 Numeric. integr. density =       10.000001346292

     Total iterative time =      0.2s



                  Occupations of the irreducible representations
                  ----------------------------------------------

                     irrep           alpha         beta
                     --------     --------     --------
                     a1                3.0          3.0
                     a2                0.0          0.0
                     b1                1.0          1.0
                     b2                1.0          1.0


                       DFT Final Molecular Orbital Analysis
                       ------------------------------------

 Vector    1  Occ=2.000000D+00  E=-1.913298D+01  Symmetry=a1
              MO Center=  3.2D-19,  3.8D-31,  1.2D-01, r^2= 1.5D-02
   Bfn.  Coefficient  Atom+Function         Bfn.  Coefficient  Atom+Function  
  ----- ------------  ---------------      ----- ------------  ---------------
     1      0.995036  1 O  s                  2      0.027939  1 O  s          

 Vector    2  Occ=2.000000D+00  E=-1.019292D+00  Symmetry=a1
              MO Center=  1.7D-16,  1.2D-17, -1.1D-01, r^2= 5.0D-01
   Bfn.  Coefficient  Atom+Function         Bfn.  Coefficient  Atom+Function  
  ----- ------------  ---------------      ----- ------------  ---------------
     2      0.463672  1 O  s                  6      0.447390  1 O  s          
     1     -0.209228  1 O  s                  5     -0.153058  1 O  pz         
    10      0.151900  2 H  s                 12      0.151900  3 H  s          
     9     -0.069222  1 O  pz         

 Vector    3  Occ=2.000000D+00  E=-5.309647D-01  Symmetry=b1
              MO Center=  5.6D-17, -1.4D-32, -1.1D-01, r^2= 7.9D-01
   Bfn.  Coefficient  Atom+Function         Bfn.  Coefficient  Atom+Function  
  ----- ------------  ---------------      ----- ------------  ---------------
     3      0.516837  1 O  px                10     -0.267746  2 H  s          
    12      0.267746  3 H  s                  7      0.233459  1 O  px         
    11     -0.149281  2 H  s                 13      0.149281  3 H  s          

 Vector    4  Occ=2.000000D+00  E=-3.564451D-01  Symmetry=a1
              MO Center= -7.1D-17,  5.0D-17,  2.4D-01, r^2= 6.7D-01
   Bfn.  Coefficient  Atom+Function         Bfn.  Coefficient  Atom+Function  
  ----- ------------  ---------------      ----- ------------  ---------------
     5      0.545418  1 O  pz                 9      0.376490  1 O  pz         
     6      0.373796  1 O  s                  2      0.201174  1 O  s          
    10     -0.141819  2 H  s                 12     -0.141819  3 H  s          
    11     -0.103268  2 H  s                 13     -0.103268  3 H  s          
     1     -0.090556  1 O  s          

 Vector    5  Occ=2.000000D+00  E=-2.923535D-01  Symmetry=b2
              MO Center=  2.6D-33, -3.7D-17,  1.2D-01, r^2= 5.9D-01
   Bfn.  Coefficient  Atom+Function         Bfn.  Coefficient  Atom+Function  
  ----- ------------  ---------------      ----- ------------  ---------------
     4      0.646206  1 O  py                 8      0.505040  1 O  py         

 Vector    6  Occ=0.000000D+00  E= 5.756231D-02  Symmetry=a1
              MO Center= -7.8D-16, -2.2D-17, -5.9D-01, r^2= 2.4D+00
   Bfn.  Coefficient  Atom+Function         Bfn.  Coefficient  Atom+Function  
  ----- ------------  ---------------      ----- ------------  ---------------
     6      1.098060  1 O  s                 11     -0.940896  2 H  s          
    13     -0.940896  3 H  s                  9     -0.443621  1 O  pz         
     5     -0.288549  1 O  pz                 2      0.153135  1 O  s          
    10     -0.095915  2 H  s                 12     -0.095915  3 H  s          
     1     -0.088212  1 O  s          

 Vector    7  Occ=0.000000D+00  E= 1.477271D-01  Symmetry=b1
              MO Center= -5.6D-16,  1.5D-32, -5.5D-01, r^2= 2.5D+00
   Bfn.  Coefficient  Atom+Function         Bfn.  Coefficient  Atom+Function  
  ----- ------------  ---------------      ----- ------------  ---------------
    11      1.293431  2 H  s                 13     -1.293431  3 H  s          
     7      0.756898  1 O  px                 3      0.417303  1 O  px         
    10      0.094865  2 H  s                 12     -0.094865  3 H  s          

 Vector    8  Occ=0.000000D+00  E= 8.121456D-01  Symmetry=b1
              MO Center=  3.0D-15, -7.6D-31, -1.9D-01, r^2= 1.7D+00
   Bfn.  Coefficient  Atom+Function         Bfn.  Coefficient  Atom+Function  
  ----- ------------  ---------------      ----- ------------  ---------------
    10      0.975367  2 H  s                 12     -0.975367  3 H  s          
    11     -0.654420  2 H  s                 13      0.654420  3 H  s          
     7      0.548095  1 O  px                 3      0.192117  1 O  px         

 Vector    9  Occ=0.000000D+00  E= 8.789361D-01  Symmetry=a1
              MO Center= -2.6D-15, -1.1D-18, -1.6D-01, r^2= 1.3D+00
   Bfn.  Coefficient  Atom+Function         Bfn.  Coefficient  Atom+Function  
  ----- ------------  ---------------      ----- ------------  ---------------
     5      0.800928  1 O  pz                10      0.691636  2 H  s          
    12      0.691636  3 H  s                 11     -0.585304  2 H  s          
    13     -0.585304  3 H  s                  9     -0.524616  1 O  pz         
     6      0.268873  1 O  s                  2     -0.171641  1 O  s          
     1      0.030281  1 O  s          

 Vector   10  Occ=0.000000D+00  E= 8.891924D-01  Symmetry=b2
              MO Center= -3.2D-38, -7.2D-23,  1.2D-01, r^2= 1.1D+00
   Bfn.  Coefficient  Atom+Function         Bfn.  Coefficient  Atom+Function  
  ----- ------------  ---------------      ----- ------------  ---------------
     8     -1.039702  1 O  py                 4      0.958365  1 O  py         

 Vector   11  Occ=0.000000D+00  E= 9.577265D-01  Symmetry=a1
              MO Center= -2.4D-16,  1.6D-18,  1.0D-01, r^2= 1.4D+00
   Bfn.  Coefficient  Atom+Function         Bfn.  Coefficient  Atom+Function  
  ----- ------------  ---------------      ----- ------------  ---------------
     9      1.103775  1 O  pz                10      0.706787  2 H  s          
    12      0.706787  3 H  s                  5     -0.546564  1 O  pz         
     2     -0.486812  1 O  s                 11     -0.198979  2 H  s          
    13     -0.198979  3 H  s                  6      0.096168  1 O  s          
     1      0.080679  1 O  s          

 Vector   12  Occ=0.000000D+00  E= 1.069177D+00  Symmetry=b1
              MO Center= -2.9D-16,  1.7D-31,  1.1D-01, r^2= 1.5D+00
   Bfn.  Coefficient  Atom+Function         Bfn.  Coefficient  Atom+Function  
  ----- ------------  ---------------      ----- ------------  ---------------
     7      1.663570  1 O  px                 3     -0.986424  1 O  px         
    11      0.937304  2 H  s                 13     -0.937304  3 H  s          

 Vector   13  Occ=0.000000D+00  E= 1.422959D+00  Symmetry=a1
              MO Center=  1.4D-15, -3.8D-18, -2.2D-01, r^2= 1.2D+00
   Bfn.  Coefficient  Atom+Function         Bfn.  Coefficient  Atom+Function  
  ----- ------------  ---------------      ----- ------------  ---------------
     6      2.784803  1 O  s                  2     -1.667713  1 O  s          
     9     -0.868824  1 O  pz                11     -0.627320  2 H  s          
    13     -0.627320  3 H  s                 10     -0.477812  2 H  s          
    12     -0.477812  3 H  s                  5      0.174386  1 O  pz         
     1      0.053567  1 O  s          


 center of mass
 --------------
 x =   0.00000000 y =   0.00000000 z =   0.09752365

 moments of inertia (a.u.)
 ------------------
           2.194243005950           0.000000000000           0.000000000000
           0.000000000000           6.318513896020           0.000000000000
           0.000000000000           0.000000000000           4.124270890070

     Multipole analysis of the density
     ---------------------------------

     L   x y z        total         alpha         beta         nuclear
     -   - - -        -----         -----         ----         -------
     0   0 0 0     -0.000000     -5.000000     -5.000000     10.000000

     1   1 0 0     -0.000000     -0.000000     -0.000000      0.000000
     1   0 1 0      0.000000      0.000000      0.000000      0.000000
     1   0 0 1     -0.968009     -0.484005     -0.484005      0.000000

     2   2 0 0     -3.207320     -3.649784     -3.649784      4.092249
     2   1 1 0      0.000000      0.000000      0.000000      0.000000
     2   1 0 1      0.000000      0.000000      0.000000      0.000000
     2   0 2 0     -5.323604     -2.661802     -2.661802      0.000000
     2   0 1 1      0.000000      0.000000      0.000000      0.000000
     2   0 0 2     -4.573556     -3.267408     -3.267408      1.961259


 Parallel integral file used       2 records with       0 large values


 Task  times  cpu:        0.2s     wall:        0.3s


                                NWChem Input Module
                                -------------------


 Summary of allocated global arrays
-----------------------------------
  No active global arrays



                         GA Statistics for process    0
                         ------------------------------

       create   destroy   get      put      acc     scatter   gather  read&inc
calls:  207      200     1993      523     1074        0        0      239     
number of processes/call 0.00e+00 0.00e+00 0.00e+00 0.00e+00 0.00e+00
bytes total:             6.09e+05 2.21e+05 3.07e+05 0.00e+00 0.00e+00 1.91e+03
bytes remote:            5.18e+04 1.97e+04 2.43e+04 0.00e+00 0.00e+00 0.00e+00
Max memory consumed for GA by this process: 51272 bytes

MA_summarize_allocated_blocks: starting scan ...
MA_summarize_allocated_blocks: scan completed: 0 heap blocks, 0 stack blocks
MA usage statistics:

	allocation statistics:
					      heap	     stack
					      ----	     -----
	current number of blocks	         0	         0
	maximum number of blocks	        22	        57
	current total bytes		         0	         0
	maximum total bytes		   1943576	  22510488
	maximum total K-bytes		      1944	     22511
	maximum total M-bytes		         2	        23


                                     CITATION
                                     --------
                Please cite the following reference when publishing
                           results obtained with NWChem:

          E. Aprà, E. J. Bylaska, W. A. de Jong, N. Govind, K. Kowalski,
       T. P. Straatsma, M. Valiev, H. J. J. van Dam, Y. Alexeev, J. Anchell,
       V. Anisimov, F. W. Aquino, R. Atta-Fynn, J. Autschbach, N. P. Bauman,
     J. C. Becca, D. E. Bernholdt, K. Bhaskaran-Nair, S. Bogatko, P. Borowski,
        J. Boschen, J. Brabec, A. Bruner, E. Cauët, Y. Chen, G. N. Chuev,
      C. J. Cramer, J. Daily, M. J. O. Deegan, T. H. Dunning Jr., M. Dupuis,
   K. G. Dyall, G. I. Fann, S. A. Fischer, A. Fonari, H. Früchtl, L. Gagliardi,
      J. Garza, N. Gawande, S. Ghosh, K. Glaesemann, A. W. Götz, J. Hammond,
       V. Helms, E. D. Hermes, K. Hirao, S. Hirata, M. Jacquelin, L. Jensen,
   B. G. Johnson, H. Jónsson, R. A. Kendall, M. Klemm, R. Kobayashi, V. Konkov,
      S. Krishnamoorthy, M. Krishnan, Z. Lin, R. D. Lins, R. J. Littlefield,
      A. J. Logsdail, K. Lopata, W. Ma, A. V. Marenich, J. Martin del Campo,
   D. Mejia-Rodriguez, J. E. Moore, J. M. Mullin, T. Nakajima, D. R. Nascimento,
    J. A. Nichols, P. J. Nichols, J. Nieplocha, A. Otero-de-la-Roza, B. Palmer,
    A. Panyala, T. Pirojsirikul, B. Peng, R. Peverati, J. Pittner, L. Pollack,
   R. M. Richard, P. Sadayappan, G. C. Schatz, W. A. Shelton, D. W. Silverstein,
   D. M. A. Smith, T. A. Soares, D. Song, M. Swart, H. L. Taylor, G. S. Thomas,
            V. Tipparaju, D. G. Truhlar, K. Tsemekhman, T. Van Voorhis,
     Á. Vázquez-Mayagoitia, P. Verma, O. Villa, A. Vishnu, K. D. Vogiatzis,
        D. Wang, J. H. Weare, M. J. Williamson, T. L. Windus, K. Woliński,
        A. T. Wong, Q. Wu, C. Yang, Q. Yu, M. Zacharias, Z. Zhang, Y. Zhao,
                                and R. J. Harrison
                        "NWChem: Past, present, and future
                         J. Chem. Phys. 152, 184102 (2020)
                               doi:10.1063/5.0004997

                                      AUTHORS
                                      -------
     E. Apra, E. J. Bylaska, N. Govind, K. Kowalski, M. Valiev, W. A. de Jong,
      T. P. Straatsma, H. J. J. van Dam, D. Wang, T. L. Windus, N. P. Bauman,
       A. Panyala, J. Hammond, J. Autschbach, K. Bhaskaran-Nair, J. Brabec,
    K. Lopata, S. A. Fischer, S. Krishnamoorthy, M. Jacquelin, W. Ma, M. Klemm,
       O. Villa, Y. Chen, V. Anisimov, F. Aquino, S. Hirata, M. T. Hackler,
           Eric Hermes, L. Jensen, J. E. Moore, J. C. Becca, V. Konjkov,
            D. Mejia-Rodriguez, T. Risthaus, M. Malagoli, A. Marenich,
   A. Otero-de-la-Roza, J. Mullin, P. Nichols, R. Peverati, J. Pittner, Y. Zhao,
        P.-D. Fan, A. Fonari, M. J. Williamson, R. J. Harrison, J. R. Rehr,
      M. Dupuis, D. Silverstein, D. M. A. Smith, J. Nieplocha, V. Tipparaju,
      M. Krishnan, B. E. Van Kuiken, A. Vazquez-Mayagoitia, M. Swart, Q. Wu,
   T. Van Voorhis, A. A. Auer, M. Nooijen, L. D. Crosby, E. Brown, G. Cisneros,
     G. I. Fann, H. Fruchtl, J. Garza, K. Hirao, R. A. Kendall, J. A. Nichols,
       K. Tsemekhman, K. Wolinski, J. Anchell, D. E. Bernholdt, P. Borowski,
       T. Clark, D. Clerc, H. Dachsel, M. J. O. Deegan, K. Dyall, D. Elwood,
      E. Glendening, M. Gutowski, A. C. Hess, J. Jaffe, B. G. Johnson, J. Ju,
        R. Kobayashi, R. Kutteh, Z. Lin, R. Littlefield, X. Long, B. Meng,
      T. Nakajima, S. Niu, L. Pollack, M. Rosing, K. Glaesemann, G. Sandrone,
      M. Stave, H. Taylor, G. Thomas, J. H. van Lenthe, A. T. Wong, Z. Zhang.

 Total times  cpu:        0.2s     wall:        0.3s
