 argument  1 = cl2_b3lyp_6-31g.nw
                                         
                                         


             Northwest Computational Chemistry Package (NWChem) 7.0.2
             --------------------------------------------------------


                    Environmental Molecular Sciences Laboratory
                       Pacific Northwest National Laboratory
                                Richland, WA 99352

                              Copyright (c) 1994-2020
                       Pacific Northwest National Laboratory
                            Battelle Memorial Institute

             NWChem is an open-source computational chemistry package
                        distributed under the terms of the
                      Educational Community License (ECL) 2.0
             A copy of the license is included with this distribution
                              in the LICENSE.TXT file

                                  ACKNOWLEDGMENT
                                  --------------

            This software and its documentation were developed at the
            EMSL at Pacific Northwest National Laboratory, a multiprogram
            national laboratory, operated for the U.S. Department of Energy
            by Battelle under Contract Number DE-AC05-76RL01830. Support
            for this work was provided by the Department of Energy Office
            of Biological and Environmental Research, Office of Basic
            Energy Sciences, and the Office of Advanced Scientific Computing.


           Job information
           ---------------

    hostname        = DESKTOP-M7D5GNM
    program         = /usr/bin/nwchem
    date            = Mon Oct 14 15:52:27 2024

    compiled        = Sat_Apr_09_17:12:10_2022
    source          = /build/nwchem-f1f4gx/nwchem-7.0.2/build-openmpi
    nwchem branch   = 7.0.2
    nwchem revision = N/A
    ga revision     = 5.8.1
    use scalapack   = T
    input           = cl2_b3lyp_6-31g.nw
    prefix          = cl2.
    data base       = ./cl2.db
    status          = startup
    nproc           =        4
    time left       =     -1s



           Memory information
           ------------------

    heap     =   13107198 doubles =    100.0 Mbytes
    stack    =   13107195 doubles =    100.0 Mbytes
    global   =   26214400 doubles =    200.0 Mbytes (distinct from heap & stack)
    total    =   52428793 doubles =    400.0 Mbytes
    verify   = yes
    hardfail = no 


           Directory information
           ---------------------

  0 permanent = .
  0 scratch   = .




                                NWChem Input Module
                                -------------------


                            Chlorine in 6-31g basis set
                            ---------------------------
 ORDER OF PRIMARY AXIS IS BEING SET TO 4
 D4H symmetry detected


                             Geometry "geometry" -> ""
                             -------------------------

 Output coordinates in a.u. (scale by  1.000000000 to convert to a.u.)

  No.       Tag          Charge          X              Y              Z
 ---- ---------------- ---------- -------------- -------------- --------------
    1 Cl                  17.0000     0.00000000     0.00000000    -0.75000000
    2 Cl                  17.0000     0.00000000     0.00000000     0.75000000

      Atomic Mass 
      ----------- 

      Cl                34.968850


 Effective nuclear repulsion energy (a.u.)     192.6666666667

            Nuclear Dipole moment (a.u.) 
            ----------------------------
        X                 Y               Z
 ---------------- ---------------- ----------------
     0.0000000000     0.0000000000     0.0000000000

      Symmetry information
      --------------------

 Group name             D4h       
 Group number             28
 Group order              16
 No. of unique centers     1

      Symmetry unique atoms

     1


            XYZ format geometry
            -------------------
     2
 geometry
 Cl                    0.00000000     0.00000000    -0.39688294
 Cl                    0.00000000     0.00000000     0.39688294

 ==============================================================================
                                internuclear distances
 ------------------------------------------------------------------------------
       center one      |      center two      | atomic units |       a.u.
 ------------------------------------------------------------------------------
    2 Cl               |   1 Cl               |     1.50000  |     1.50000
 ------------------------------------------------------------------------------
                         number of included internuclear distances:          1
 ==============================================================================



                      Basis "ao basis" -> "" (cartesian)
                      -----
  Cl (Chlorine)
  -------------
            Exponent  Coefficients 
       -------------- ---------------------------------------------------------
  1 S  2.51801000E+04  0.001833
  1 S  3.78035000E+03  0.014034
  1 S  8.60474000E+02  0.069097
  1 S  2.42145000E+02  0.237452
  1 S  7.73349000E+01  0.483034
  1 S  2.62470000E+01  0.339856

  2 S  4.91765000E+02 -0.002297
  2 S  1.16984000E+02 -0.030714
  2 S  3.74153000E+01 -0.112528
  2 S  1.37834000E+01  0.045016
  2 S  5.45215000E+00  0.589353
  2 S  2.22588000E+00  0.465206

  3 P  4.91765000E+02  0.003989
  3 P  1.16984000E+02  0.030318
  3 P  3.74153000E+01  0.129880
  3 P  1.37834000E+01  0.327951
  3 P  5.45215000E+00  0.453527
  3 P  2.22588000E+00  0.252154

  4 S  3.18649000E+00 -0.251830
  4 S  1.14427000E+00  0.061589
  4 S  4.20377000E-01  1.060180

  5 P  3.18649000E+00 -0.014299
  5 P  1.14427000E+00  0.323572
  5 P  4.20377000E-01  0.743507

  6 S  1.42657000E-01  1.000000

  7 P  1.42657000E-01  1.000000



 Summary of "ao basis" -> "" (cartesian)
 ------------------------------------------------------------------------------
       Tag                 Description            Shells   Functions and Types
 ---------------- ------------------------------  ------  ---------------------
 Cl                          6-31g                   7       13   4s3p



                                 NWChem DFT Module
                                 -----------------


                            Chlorine in 6-31g basis set




 Summary of "ao basis" -> "ao basis" (cartesian)
 ------------------------------------------------------------------------------
       Tag                 Description            Shells   Functions and Types
 ---------------- ------------------------------  ------  ---------------------
 Cl                          6-31g                   7       13   4s3p


      Symmetry analysis of basis
      --------------------------

        a1g         7
        a1u         0
        a2g         0
        a2u         7
        b1g         0
        b1u         0
        b2g         0
        b2u         0
        eg          6
        eu          6

  Caching 1-el integrals 

            General Information
            -------------------
          SCF calculation type: DFT
          Wavefunction type:  closed shell.
          No. of atoms     :     2
          No. of electrons :    34
           Alpha electrons :    17
            Beta electrons :    17
          Charge           :     0
          Spin multiplicity:     1
          Use of symmetry is: on ; symmetry adaption is: on 
          Maximum number of iterations:  30
          AO basis - number of functions:    26
                     number of shells:    14
          Convergence on energy requested:  1.00D-06
          Convergence on density requested:  1.00D-05
          Convergence on gradient requested:  5.00D-04

              XC Information
              --------------
                         B3LYP Method XC Potential
                     Hartree-Fock (Exact) Exchange  0.200          
                        Slater Exchange Functional  0.800 local    
                    Becke 1988 Exchange Functional  0.720 non-local
              Lee-Yang-Parr Correlation Functional  0.810          
                  VWN I RPA Correlation Functional  0.190 local    

             Grid Information
             ----------------
          Grid used for XC integration:  medium    
          Radial quadrature: Mura-Knowles        
          Angular quadrature: Lebedev. 
          Tag              B.-S. Rad. Rad. Pts. Rad. Cut. Ang. Pts.
          ---              ---------- --------- --------- ---------
          Cl                  1.00       88           6.0       590
          Grid pruning is: on 
          Number of quadrature shells:    88
          Spatial weights used:  Erf1

          Convergence Information
          -----------------------
          Convergence aids based upon iterative change in 
          total energy or number of iterations. 
          Levelshifting, if invoked, occurs when the 
          HOMO/LUMO gap drops below (HL_TOL):  1.00D-02
          DIIS, if invoked, will attempt to extrapolate 
          using up to (NFOCK): 10 stored Fock matrices.

                    Damping( 0%)  Levelshifting(0.5)       DIIS
                  --------------- ------------------- ---------------
          dE  on:    start            ASAP                start   
          dE off:    2 iters         30 iters            30 iters 


      Screening Tolerance Information
      -------------------------------
          Density screening/tol_rho:  1.00D-10
          AO Gaussian exp screening on grid/accAOfunc:  14
          CD Gaussian exp screening on grid/accCDfunc:  20
          XC Gaussian exp screening on grid/accXCfunc:  20
          Schwarz screening/accCoul:  1.00D-08


      Superposition of Atomic Density Guess
      -------------------------------------

 Sum of atomic energies:        -918.90116543

      Non-variational initial energy
      ------------------------------

 Total energy =    -923.878520
 1-e energy   =   -1629.298710
 2-e energy   =     512.753523
 HOMO         =      -0.080036
 LUMO         =       0.331622


      Symmetry analysis of molecular orbitals - initial
      -------------------------------------------------

  Numbering of irreducible representations: 

     1 a1g         2 a1u         3 a2g         4 a2u         5 b1g     
     6 b1u         7 b2g         8 b2u         9 eg         10 eu      

  Orbital symmetries:

     1 a2u         2 a1g         3 a1g         4 a2u         5 a1g     
     6 eu          7 eu          8 eg          9 eg         10 a2u     
    11 a1g        12 eu         13 eu         14 a2u        15 a1g     
    16 eg         17 eg         18 a2u        19 eu         20 eu      
    21 a1g        22 a1g        23 eg         24 eg         25 a2u     
    26 a2u     

   Time after variat. SCF:      0.2
   Time prior to 1st pass:      0.2

 #quartets = 3.710D+03 #integrals = 1.292D+04 #direct =  0.0% #cached =100.0%


 Integral file          = ./cl2.aoints.0
 Record size in doubles =  65536        No. of integs per rec  =  43688
 Max. records in memory =      2        Max. records in file   = 463244
 No. of bits per label  =      8        No. of bits per value  =     64


File balance: exchanges=     0  moved=     0  time=   0.0


 Grid_pts file          = ./cl2.gridpts.0
 Record size in doubles =  12289        No. of grid_pts per rec  =   3070
 Max. records in memory =      6        Max. recs in file   =   2470437


           Memory utilization after 1st SCF pass: 
           Heap Space remaining (MW):       12.90            12900326
          Stack Space remaining (MW):       13.11            13106932

   convergence    iter        energy       DeltaE   RMS-Dens  Diis-err    time
 ---------------- ----- ----------------- --------- --------- ---------  ------
 d= 0,ls=0.0,diis     1   -911.7906080745 -1.10D+03  1.51D-01  6.47D-01     0.5
 d= 0,ls=0.0,diis     2   -911.8619636031 -7.14D-02  7.34D-02  1.44D-01     0.5
 d= 0,ls=0.0,diis     3   -911.8856979390 -2.37D-02  1.30D-02  7.51D-03     0.5
 d= 0,ls=0.0,diis     4   -911.8869345585 -1.24D-03  8.18D-04  1.65D-06     0.5
 d= 0,ls=0.0,diis     5   -911.8869349271 -3.69D-07  1.47D-05  1.26D-08     0.5
 d= 0,ls=0.0,diis     6   -911.8869349292 -2.16D-09  1.22D-06  1.36D-11     0.6


         Total DFT energy =     -911.886934929227
      One electron energy =    -1620.459840253186
           Coulomb energy =      573.984483271845
    Exchange-Corr. energy =      -58.078244614551
 Nuclear repulsion energy =      192.666666666667

 Numeric. integr. density =       33.999997934920

     Total iterative time =      0.3s



                  Occupations of the irreducible representations
                  ----------------------------------------------

                     irrep           alpha         beta
                     --------     --------     --------
                     a1g               5.0          5.0
                     a1u               0.0          0.0
                     a2g               0.0          0.0
                     a2u               4.0          4.0
                     b1g               0.0          0.0
                     b1u               0.0          0.0
                     b2g               0.0          0.0
                     b2u               0.0          0.0
                     eg                4.0          4.0
                     eu                4.0          4.0


                       DFT Final Molecular Orbital Analysis
                       ------------------------------------

 Vector    1  Occ=2.000000D+00  E=-1.021298D+02  Symmetry=a2u
              MO Center=  0.0D+00,  0.0D+00, -1.9D-17, r^2= 1.6D-01
   Bfn.  Coefficient  Atom+Function         Bfn.  Coefficient  Atom+Function  
  ----- ------------  ---------------      ----- ------------  ---------------
     1      0.704508  1 Cl s                 14     -0.704508  2 Cl s          

 Vector    2  Occ=2.000000D+00  E=-1.021298D+02  Symmetry=a1g
              MO Center=  1.7D-17, -3.7D-18, -4.0D-17, r^2= 1.6D-01
   Bfn.  Coefficient  Atom+Function         Bfn.  Coefficient  Atom+Function  
  ----- ------------  ---------------      ----- ------------  ---------------
     1      0.704565  1 Cl s                 14      0.704565  2 Cl s          

 Vector    3  Occ=2.000000D+00  E=-1.075832D+01  Symmetry=a1g
              MO Center= -5.1D-33,  1.1D-33, -7.7D-17, r^2= 1.6D-01
   Bfn.  Coefficient  Atom+Function         Bfn.  Coefficient  Atom+Function  
  ----- ------------  ---------------      ----- ------------  ---------------
     2      0.658001  1 Cl s                 15      0.658001  2 Cl s          
     5      0.202822  1 Cl pz                18     -0.202822  2 Cl pz         
     1     -0.186273  1 Cl s                 14     -0.186273  2 Cl s          
     6      0.026489  1 Cl s                 19      0.026489  2 Cl s          

 Vector    4  Occ=2.000000D+00  E=-1.012145D+01  Symmetry=a2u
              MO Center=  3.2D-37,  3.0D-38,  1.5D-16, r^2= 2.0D-01
   Bfn.  Coefficient  Atom+Function         Bfn.  Coefficient  Atom+Function  
  ----- ------------  ---------------      ----- ------------  ---------------
     2      0.747003  1 Cl s                 15     -0.747003  2 Cl s          
     1     -0.205237  1 Cl s                 14      0.205237  2 Cl s          
     5      0.090479  1 Cl pz                18      0.090479  2 Cl pz         
    10     -0.089509  1 Cl s                 23      0.089509  2 Cl s          
     6      0.039930  1 Cl s                 19     -0.039930  2 Cl s          

 Vector    5  Occ=2.000000D+00  E=-8.257992D+00  Symmetry=a1g
              MO Center= -3.4D-15,  1.2D-15,  6.2D-16, r^2= 2.8D-01
   Bfn.  Coefficient  Atom+Function         Bfn.  Coefficient  Atom+Function  
  ----- ------------  ---------------      ----- ------------  ---------------
     5      0.642931  1 Cl pz                18     -0.642931  2 Cl pz         
     2     -0.261952  1 Cl s                 15     -0.261952  2 Cl s          
     1      0.070082  1 Cl s                 14      0.070082  2 Cl s          

 Vector    6  Occ=2.000000D+00  E=-8.030550D+00  Symmetry=eu
              MO Center=  5.0D-16,  7.4D-16, -2.5D-17, r^2= 2.1D-01
   Bfn.  Coefficient  Atom+Function         Bfn.  Coefficient  Atom+Function  
  ----- ------------  ---------------      ----- ------------  ---------------
     4      0.573139  1 Cl py                17      0.573139  2 Cl py         
     3      0.390945  1 Cl px                16      0.390945  2 Cl px         

 Vector    7  Occ=2.000000D+00  E=-8.030550D+00  Symmetry=eu
              MO Center=  2.9D-15, -2.0D-15, -2.1D-14, r^2= 2.1D-01
   Bfn.  Coefficient  Atom+Function         Bfn.  Coefficient  Atom+Function  
  ----- ------------  ---------------      ----- ------------  ---------------
     3      0.573139  1 Cl px                16      0.573139  2 Cl px         
     4     -0.390945  1 Cl py                17     -0.390945  2 Cl py         

 Vector    8  Occ=2.000000D+00  E=-7.890062D+00  Symmetry=eg
              MO Center= -8.1D-18,  5.5D-18,  2.1D-14, r^2= 2.2D-01
   Bfn.  Coefficient  Atom+Function         Bfn.  Coefficient  Atom+Function  
  ----- ------------  ---------------      ----- ------------  ---------------
     3      0.586105  1 Cl px                16     -0.586105  2 Cl px         
     4     -0.397899  1 Cl py                17      0.397899  2 Cl py         

 Vector    9  Occ=2.000000D+00  E=-7.890062D+00  Symmetry=eg
              MO Center=  1.3D-28, -8.4D-29,  1.4D-16, r^2= 2.2D-01
   Bfn.  Coefficient  Atom+Function         Bfn.  Coefficient  Atom+Function  
  ----- ------------  ---------------      ----- ------------  ---------------
     4      0.586105  1 Cl py                17     -0.586105  2 Cl py         
     3      0.397899  1 Cl px                16     -0.397899  2 Cl px         

 Vector   10  Occ=2.000000D+00  E=-7.765297D+00  Symmetry=a2u
              MO Center=  1.4D-19, -1.0D-19, -8.4D-16, r^2= 2.4D-01
   Bfn.  Coefficient  Atom+Function         Bfn.  Coefficient  Atom+Function  
  ----- ------------  ---------------      ----- ------------  ---------------
     5      0.725822  1 Cl pz                18      0.725822  2 Cl pz         
    10      0.082414  1 Cl s                 23     -0.082414  2 Cl s          
     2     -0.053901  1 Cl s                 15      0.053901  2 Cl s          
     6     -0.034616  1 Cl s                 19      0.034616  2 Cl s          

 Vector   11  Occ=2.000000D+00  E=-1.502585D+00  Symmetry=a1g
              MO Center=  1.1D-16, -2.2D-16,  7.9D-16, r^2= 5.5D-01
   Bfn.  Coefficient  Atom+Function         Bfn.  Coefficient  Atom+Function  
  ----- ------------  ---------------      ----- ------------  ---------------
     6      0.514423  1 Cl s                 19      0.514423  2 Cl s          
     2     -0.421555  1 Cl s                 15     -0.421555  2 Cl s          
     9      0.289289  1 Cl pz                22     -0.289289  2 Cl pz         
     5     -0.160046  1 Cl pz                18      0.160046  2 Cl pz         
     1      0.077615  1 Cl s                 14      0.077615  2 Cl s          

 Vector   12  Occ=2.000000D+00  E=-9.542388D-01  Symmetry=eu
              MO Center=  6.1D-16, -4.1D-16,  2.4D-16, r^2= 7.9D-01
   Bfn.  Coefficient  Atom+Function         Bfn.  Coefficient  Atom+Function  
  ----- ------------  ---------------      ----- ------------  ---------------
     7      0.509027  1 Cl px                20      0.509027  2 Cl px         
     8     -0.344016  1 Cl py                21     -0.344016  2 Cl py         
     3     -0.228155  1 Cl px                16     -0.228155  2 Cl px         
     4      0.154194  1 Cl py                17      0.154194  2 Cl py         

 Vector   13  Occ=2.000000D+00  E=-9.542388D-01  Symmetry=eu
              MO Center=  1.2D-16,  1.8D-16,  8.2D-16, r^2= 7.9D-01
   Bfn.  Coefficient  Atom+Function         Bfn.  Coefficient  Atom+Function  
  ----- ------------  ---------------      ----- ------------  ---------------
     8      0.509027  1 Cl py                21      0.509027  2 Cl py         
     7      0.344016  1 Cl px                20      0.344016  2 Cl px         
     4     -0.228155  1 Cl py                17     -0.228155  2 Cl py         
     3     -0.154194  1 Cl px                16     -0.154194  2 Cl px         

 Vector   14  Occ=2.000000D+00  E=-6.368807D-01  Symmetry=a2u
              MO Center= -1.8D-18,  1.2D-18, -6.4D-17, r^2= 1.3D+00
   Bfn.  Coefficient  Atom+Function         Bfn.  Coefficient  Atom+Function  
  ----- ------------  ---------------      ----- ------------  ---------------
     6      0.825990  1 Cl s                 19     -0.825990  2 Cl s          
    10      0.680852  1 Cl s                 23     -0.680852  2 Cl s          
     2     -0.175158  1 Cl s                 15      0.175158  2 Cl s          
     5      0.120839  1 Cl pz                18      0.120839  2 Cl pz         
     9     -0.093219  1 Cl pz                22     -0.093219  2 Cl pz         

 Vector   15  Occ=2.000000D+00  E=-3.638673D-01  Symmetry=a1g
              MO Center= -2.2D-16,  3.3D-16, -9.3D-15, r^2= 1.5D+00
   Bfn.  Coefficient  Atom+Function         Bfn.  Coefficient  Atom+Function  
  ----- ------------  ---------------      ----- ------------  ---------------
     9      0.653181  1 Cl pz                22     -0.653181  2 Cl pz         
    10     -0.298318  1 Cl s                 23     -0.298318  2 Cl s          
     5     -0.272684  1 Cl pz                18      0.272684  2 Cl pz         
    13      0.137208  1 Cl pz                26     -0.137208  2 Cl pz         
     6     -0.097540  1 Cl s                 19     -0.097540  2 Cl s          

 Vector   16  Occ=2.000000D+00  E=-1.591826D-01  Symmetry=eg
              MO Center= -1.2D-21,  9.5D-22, -2.5D-16, r^2= 1.6D+00
   Bfn.  Coefficient  Atom+Function         Bfn.  Coefficient  Atom+Function  
  ----- ------------  ---------------      ----- ------------  ---------------
     7      0.639874  1 Cl px                20     -0.639874  2 Cl px         
    11      0.564990  1 Cl px                24     -0.564990  2 Cl px         
     8     -0.508862  1 Cl py                21      0.508862  2 Cl py         
    12     -0.449311  1 Cl py                25      0.449311  2 Cl py         
     3     -0.163974  1 Cl px                16      0.163974  2 Cl px         

 Vector   17  Occ=2.000000D+00  E=-1.591826D-01  Symmetry=eg
              MO Center=  4.4D-17,  5.6D-17, -1.3D-15, r^2= 1.6D+00
   Bfn.  Coefficient  Atom+Function         Bfn.  Coefficient  Atom+Function  
  ----- ------------  ---------------      ----- ------------  ---------------
     8      0.639874  1 Cl py                21     -0.639874  2 Cl py         
    12      0.564990  1 Cl py                25     -0.564990  2 Cl py         
     7      0.508862  1 Cl px                20     -0.508862  2 Cl px         
    11      0.449311  1 Cl px                24     -0.449311  2 Cl px         
     4     -0.163974  1 Cl py                17      0.163974  2 Cl py         

 Vector   18  Occ=0.000000D+00  E= 1.853506D-01  Symmetry=eu
              MO Center= -3.4D-13,  2.0D-13,  7.9D-16, r^2= 3.2D+00
   Bfn.  Coefficient  Atom+Function         Bfn.  Coefficient  Atom+Function  
  ----- ------------  ---------------      ----- ------------  ---------------
    11      0.607945  1 Cl px                24      0.607945  2 Cl px         
     7     -0.459221  1 Cl px                20     -0.459221  2 Cl px         
    12     -0.349195  1 Cl py                25     -0.349195  2 Cl py         
     8      0.263770  1 Cl py                21      0.263770  2 Cl py         
     3      0.122859  1 Cl px                16      0.122859  2 Cl px         

 Vector   19  Occ=0.000000D+00  E= 1.853506D-01  Symmetry=eu
              MO Center= -8.2D-17, -1.4D-16,  2.6D-15, r^2= 3.2D+00
   Bfn.  Coefficient  Atom+Function         Bfn.  Coefficient  Atom+Function  
  ----- ------------  ---------------      ----- ------------  ---------------
    12      0.607945  1 Cl py                25      0.607945  2 Cl py         
     8     -0.459221  1 Cl py                21     -0.459221  2 Cl py         
    11      0.349195  1 Cl px                24      0.349195  2 Cl px         
     7     -0.263770  1 Cl px                20     -0.263770  2 Cl px         
     4      0.122859  1 Cl py                17      0.122859  2 Cl py         

 Vector   20  Occ=0.000000D+00  E= 2.258075D-01  Symmetry=a1g
              MO Center=  3.9D-13, -2.2D-13, -1.1D-16, r^2= 2.5D+00
   Bfn.  Coefficient  Atom+Function         Bfn.  Coefficient  Atom+Function  
  ----- ------------  ---------------      ----- ------------  ---------------
     6      1.051107  1 Cl s                 19      1.051107  2 Cl s          
    13     -0.978051  1 Cl pz                26      0.978051  2 Cl pz         
    10     -0.732246  1 Cl s                 23     -0.732246  2 Cl s          
     2     -0.069199  1 Cl s                 15     -0.069199  2 Cl s          
     9     -0.061042  1 Cl pz                22      0.061042  2 Cl pz         

 Vector   21  Occ=0.000000D+00  E= 2.488084D-01  Symmetry=a2u
              MO Center=  3.0D-17,  2.3D-17, -8.9D-16, r^2= 4.6D+00
   Bfn.  Coefficient  Atom+Function         Bfn.  Coefficient  Atom+Function  
  ----- ------------  ---------------      ----- ------------  ---------------
    10     17.217803  1 Cl s                 23    -17.217803  2 Cl s          
    13      5.678913  1 Cl pz                26      5.678913  2 Cl pz         
     6      0.754253  1 Cl s                 19     -0.754253  2 Cl s          
     9      0.209096  1 Cl pz                22      0.209096  2 Cl pz         
     1      0.030104  1 Cl s                 14     -0.030104  2 Cl s          

 Vector   22  Occ=0.000000D+00  E= 3.812653D-01  Symmetry=a1g
              MO Center= -4.2D-14,  2.4D-14,  4.9D-15, r^2= 3.8D+00
   Bfn.  Coefficient  Atom+Function         Bfn.  Coefficient  Atom+Function  
  ----- ------------  ---------------      ----- ------------  ---------------
    13      1.296806  1 Cl pz                26     -1.296806  2 Cl pz         
    10     -0.687751  1 Cl s                 23     -0.687751  2 Cl s          
     9     -0.677241  1 Cl pz                22      0.677241  2 Cl pz         
     6      0.453312  1 Cl s                 19      0.453312  2 Cl s          
     5      0.204470  1 Cl pz                18     -0.204470  2 Cl pz         

 Vector   23  Occ=0.000000D+00  E= 4.941309D-01  Symmetry=eg
              MO Center= -4.3D-21,  6.3D-21, -2.7D-15, r^2= 3.4D+00
   Bfn.  Coefficient  Atom+Function         Bfn.  Coefficient  Atom+Function  
  ----- ------------  ---------------      ----- ------------  ---------------
    12      1.704207  1 Cl py                25     -1.704207  2 Cl py         
    11     -1.172142  1 Cl px                24      1.172142  2 Cl px         
     8     -0.867724  1 Cl py                21      0.867724  2 Cl py         
     7      0.596815  1 Cl px                20     -0.596815  2 Cl px         
     4      0.171504  1 Cl py                17     -0.171504  2 Cl py         

 Vector   24  Occ=0.000000D+00  E= 4.941309D-01  Symmetry=eg
              MO Center= -4.7D-16, -3.2D-16, -4.4D-16, r^2= 3.4D+00
   Bfn.  Coefficient  Atom+Function         Bfn.  Coefficient  Atom+Function  
  ----- ------------  ---------------      ----- ------------  ---------------
    11      1.704207  1 Cl px                24     -1.704207  2 Cl px         
    12      1.172142  1 Cl py                25     -1.172142  2 Cl py         
     7     -0.867724  1 Cl px                20      0.867724  2 Cl px         
     8     -0.596815  1 Cl py                21      0.596815  2 Cl py         
     3      0.171504  1 Cl px                16     -0.171504  2 Cl px         

 Vector   25  Occ=0.000000D+00  E= 6.175897D-01  Symmetry=a2u
              MO Center=  3.8D-16,  2.3D-16, -1.8D-14, r^2= 2.8D+00
   Bfn.  Coefficient  Atom+Function         Bfn.  Coefficient  Atom+Function  
  ----- ------------  ---------------      ----- ------------  ---------------
    10     24.842479  1 Cl s                 23    -24.842479  2 Cl s          
    13      6.743024  1 Cl pz                26      6.743024  2 Cl pz         
     9      1.149373  1 Cl pz                22      1.149373  2 Cl pz         
     6     -0.257481  1 Cl s                 19      0.257481  2 Cl s          
     2      0.157273  1 Cl s                 15     -0.157273  2 Cl s          

 Vector   26  Occ=0.000000D+00  E= 1.164087D+00  Symmetry=a2u
              MO Center=  2.0D-17,  1.1D-17, -1.5D-15, r^2= 1.9D+00
   Bfn.  Coefficient  Atom+Function         Bfn.  Coefficient  Atom+Function  
  ----- ------------  ---------------      ----- ------------  ---------------
    10     18.238580  1 Cl s                 23    -18.238580  2 Cl s          
    13      5.432172  1 Cl pz                26      5.432172  2 Cl pz         
     6     -4.814714  1 Cl s                 19      4.814714  2 Cl s          
     9     -2.987789  1 Cl pz                22     -2.987789  2 Cl pz         
     2     -0.731463  1 Cl s                 15      0.731463  2 Cl s          


 center of mass
 --------------
 x =   0.00000000 y =   0.00000000 z =   0.00000000

 moments of inertia (a.u.)
 ------------------
          39.339956250000           0.000000000000           0.000000000000
           0.000000000000          39.339956250000           0.000000000000
           0.000000000000           0.000000000000           0.000000000000

     Multipole analysis of the density
     ---------------------------------

     L   x y z        total         alpha         beta         nuclear
     -   - - -        -----         -----         ----         -------
     0   0 0 0     -0.000000    -17.000000    -17.000000     34.000000

     1   1 0 0     -0.000000     -0.000000     -0.000000      0.000000
     1   0 1 0     -0.000000     -0.000000     -0.000000      0.000000
     1   0 0 1     -0.000000     -0.000000     -0.000000      0.000000

     2   2 0 0    -16.189244     -8.094622     -8.094622      0.000000
     2   1 1 0      0.000000      0.000000      0.000000      0.000000
     2   1 0 1      0.000000      0.000000      0.000000      0.000000
     2   0 2 0    -16.189244     -8.094622     -8.094622      0.000000
     2   0 1 1      0.000000      0.000000      0.000000      0.000000
     2   0 0 2    -21.683607    -20.404304    -20.404304     19.125000


 Parallel integral file used       4 records with       0 large values


 Task  times  cpu:        0.4s     wall:        0.5s


                                NWChem Input Module
                                -------------------


 Summary of allocated global arrays
-----------------------------------
  No active global arrays



                         GA Statistics for process    0
                         ------------------------------

       create   destroy   get      put      acc     scatter   gather  read&inc
calls:  207      200     2200     1007      553        0        0      124     
number of processes/call 0.00e+00 0.00e+00 0.00e+00 0.00e+00 0.00e+00
bytes total:             2.30e+06 4.08e+05 1.32e+06 0.00e+00 0.00e+00 9.92e+02
bytes remote:            1.39e+06 1.69e+05 7.12e+05 0.00e+00 0.00e+00 0.00e+00
Max memory consumed for GA by this process: 66040 bytes

MA_summarize_allocated_blocks: starting scan ...
MA_summarize_allocated_blocks: scan completed: 0 heap blocks, 0 stack blocks
MA usage statistics:

	allocation statistics:
					      heap	     stack
					      ----	     -----
	current number of blocks	         0	         0
	maximum number of blocks	        22	        57
	current total bytes		         0	         0
	maximum total bytes		   1654848	  22510712
	maximum total K-bytes		      1655	     22511
	maximum total M-bytes		         2	        23


                                     CITATION
                                     --------
                Please cite the following reference when publishing
                           results obtained with NWChem:

          E. Aprà, E. J. Bylaska, W. A. de Jong, N. Govind, K. Kowalski,
       T. P. Straatsma, M. Valiev, H. J. J. van Dam, Y. Alexeev, J. Anchell,
       V. Anisimov, F. W. Aquino, R. Atta-Fynn, J. Autschbach, N. P. Bauman,
     J. C. Becca, D. E. Bernholdt, K. Bhaskaran-Nair, S. Bogatko, P. Borowski,
        J. Boschen, J. Brabec, A. Bruner, E. Cauët, Y. Chen, G. N. Chuev,
      C. J. Cramer, J. Daily, M. J. O. Deegan, T. H. Dunning Jr., M. Dupuis,
   K. G. Dyall, G. I. Fann, S. A. Fischer, A. Fonari, H. Früchtl, L. Gagliardi,
      J. Garza, N. Gawande, S. Ghosh, K. Glaesemann, A. W. Götz, J. Hammond,
       V. Helms, E. D. Hermes, K. Hirao, S. Hirata, M. Jacquelin, L. Jensen,
   B. G. Johnson, H. Jónsson, R. A. Kendall, M. Klemm, R. Kobayashi, V. Konkov,
      S. Krishnamoorthy, M. Krishnan, Z. Lin, R. D. Lins, R. J. Littlefield,
      A. J. Logsdail, K. Lopata, W. Ma, A. V. Marenich, J. Martin del Campo,
   D. Mejia-Rodriguez, J. E. Moore, J. M. Mullin, T. Nakajima, D. R. Nascimento,
    J. A. Nichols, P. J. Nichols, J. Nieplocha, A. Otero-de-la-Roza, B. Palmer,
    A. Panyala, T. Pirojsirikul, B. Peng, R. Peverati, J. Pittner, L. Pollack,
   R. M. Richard, P. Sadayappan, G. C. Schatz, W. A. Shelton, D. W. Silverstein,
   D. M. A. Smith, T. A. Soares, D. Song, M. Swart, H. L. Taylor, G. S. Thomas,
            V. Tipparaju, D. G. Truhlar, K. Tsemekhman, T. Van Voorhis,
     Á. Vázquez-Mayagoitia, P. Verma, O. Villa, A. Vishnu, K. D. Vogiatzis,
        D. Wang, J. H. Weare, M. J. Williamson, T. L. Windus, K. Woliński,
        A. T. Wong, Q. Wu, C. Yang, Q. Yu, M. Zacharias, Z. Zhang, Y. Zhao,
                                and R. J. Harrison
                        "NWChem: Past, present, and future
                         J. Chem. Phys. 152, 184102 (2020)
                               doi:10.1063/5.0004997

                                      AUTHORS
                                      -------
     E. Apra, E. J. Bylaska, N. Govind, K. Kowalski, M. Valiev, W. A. de Jong,
      T. P. Straatsma, H. J. J. van Dam, D. Wang, T. L. Windus, N. P. Bauman,
       A. Panyala, J. Hammond, J. Autschbach, K. Bhaskaran-Nair, J. Brabec,
    K. Lopata, S. A. Fischer, S. Krishnamoorthy, M. Jacquelin, W. Ma, M. Klemm,
       O. Villa, Y. Chen, V. Anisimov, F. Aquino, S. Hirata, M. T. Hackler,
           Eric Hermes, L. Jensen, J. E. Moore, J. C. Becca, V. Konjkov,
            D. Mejia-Rodriguez, T. Risthaus, M. Malagoli, A. Marenich,
   A. Otero-de-la-Roza, J. Mullin, P. Nichols, R. Peverati, J. Pittner, Y. Zhao,
        P.-D. Fan, A. Fonari, M. J. Williamson, R. J. Harrison, J. R. Rehr,
      M. Dupuis, D. Silverstein, D. M. A. Smith, J. Nieplocha, V. Tipparaju,
      M. Krishnan, B. E. Van Kuiken, A. Vazquez-Mayagoitia, M. Swart, Q. Wu,
   T. Van Voorhis, A. A. Auer, M. Nooijen, L. D. Crosby, E. Brown, G. Cisneros,
     G. I. Fann, H. Fruchtl, J. Garza, K. Hirao, R. A. Kendall, J. A. Nichols,
       K. Tsemekhman, K. Wolinski, J. Anchell, D. E. Bernholdt, P. Borowski,
       T. Clark, D. Clerc, H. Dachsel, M. J. O. Deegan, K. Dyall, D. Elwood,
      E. Glendening, M. Gutowski, A. C. Hess, J. Jaffe, B. G. Johnson, J. Ju,
        R. Kobayashi, R. Kutteh, Z. Lin, R. Littlefield, X. Long, B. Meng,
      T. Nakajima, S. Niu, L. Pollack, M. Rosing, K. Glaesemann, G. Sandrone,
      M. Stave, H. Taylor, G. Thomas, J. H. van Lenthe, A. T. Wong, Z. Zhang.

 Total times  cpu:        0.4s     wall:        0.6s
