 argument  1 = cl2_scf_6-31g.nw
                                         
                                         


             Northwest Computational Chemistry Package (NWChem) 7.0.2
             --------------------------------------------------------


                    Environmental Molecular Sciences Laboratory
                       Pacific Northwest National Laboratory
                                Richland, WA 99352

                              Copyright (c) 1994-2020
                       Pacific Northwest National Laboratory
                            Battelle Memorial Institute

             NWChem is an open-source computational chemistry package
                        distributed under the terms of the
                      Educational Community License (ECL) 2.0
             A copy of the license is included with this distribution
                              in the LICENSE.TXT file

                                  ACKNOWLEDGMENT
                                  --------------

            This software and its documentation were developed at the
            EMSL at Pacific Northwest National Laboratory, a multiprogram
            national laboratory, operated for the U.S. Department of Energy
            by Battelle under Contract Number DE-AC05-76RL01830. Support
            for this work was provided by the Department of Energy Office
            of Biological and Environmental Research, Office of Basic
            Energy Sciences, and the Office of Advanced Scientific Computing.


           Job information
           ---------------

    hostname        = DESKTOP-M7D5GNM
    program         = /usr/bin/nwchem.openmpi
    date            = Mon Oct 14 14:34:14 2024

    compiled        = Sat_Apr_09_17:12:10_2022
    source          = /build/nwchem-f1f4gx/nwchem-7.0.2/build-openmpi
    nwchem branch   = 7.0.2
    nwchem revision = N/A
    ga revision     = 5.8.1
    use scalapack   = T
    input           = cl2_scf_6-31g.nw
    prefix          = chlorine.
    data base       = ./chlorine.db
    status          = startup
    nproc           =        2
    time left       =     -1s



           Memory information
           ------------------

    heap     =   13107194 doubles =    100.0 Mbytes
    stack    =   13107199 doubles =    100.0 Mbytes
    global   =   26214400 doubles =    200.0 Mbytes (distinct from heap & stack)
    total    =   52428793 doubles =    400.0 Mbytes
    verify   = yes
    hardfail = no 


           Directory information
           ---------------------

  0 permanent = .
  0 scratch   = .




                                NWChem Input Module
                                -------------------


                            Chorine in 6-31g basis set
                            --------------------------
 ORDER OF PRIMARY AXIS IS BEING SET TO 4
 D4H symmetry detected


                             Geometry "geometry" -> ""
                             -------------------------

 Output coordinates in a.u. (scale by  1.000000000 to convert to a.u.)

  No.       Tag          Charge          X              Y              Z
 ---- ---------------- ---------- -------------- -------------- --------------
    1 Cl                  17.0000     0.00000000     0.00000000    -0.90442130
    2 Cl                  17.0000     0.00000000     0.00000000     0.90442130

      Atomic Mass 
      ----------- 

      Cl                34.968850


 Effective nuclear repulsion energy (a.u.)     159.7706736956

            Nuclear Dipole moment (a.u.) 
            ----------------------------
        X                 Y               Z
 ---------------- ---------------- ----------------
     0.0000000000     0.0000000000     0.0000000000

      Symmetry information
      --------------------

 Group name             D4h       
 Group number             28
 Group order              16
 No. of unique centers     1

      Symmetry unique atoms

     1


            XYZ format geometry
            -------------------
     2
 geometry
 Cl                    0.00000000     0.00000000    -0.47859917
 Cl                    0.00000000     0.00000000     0.47859917

 ==============================================================================
                                internuclear distances
 ------------------------------------------------------------------------------
       center one      |      center two      | atomic units |       a.u.
 ------------------------------------------------------------------------------
    2 Cl               |   1 Cl               |     1.80884  |     1.80884
 ------------------------------------------------------------------------------
                         number of included internuclear distances:          1
 ==============================================================================



                      Basis "ao basis" -> "" (cartesian)
                      -----
  Cl (Chlorine)
  -------------
            Exponent  Coefficients 
       -------------- ---------------------------------------------------------
  1 S  2.51801000E+04  0.001833
  1 S  3.78035000E+03  0.014034
  1 S  8.60474000E+02  0.069097
  1 S  2.42145000E+02  0.237452
  1 S  7.73349000E+01  0.483034
  1 S  2.62470000E+01  0.339856

  2 S  4.91765000E+02 -0.002297
  2 S  1.16984000E+02 -0.030714
  2 S  3.74153000E+01 -0.112528
  2 S  1.37834000E+01  0.045016
  2 S  5.45215000E+00  0.589353
  2 S  2.22588000E+00  0.465206

  3 P  4.91765000E+02  0.003989
  3 P  1.16984000E+02  0.030318
  3 P  3.74153000E+01  0.129880
  3 P  1.37834000E+01  0.327951
  3 P  5.45215000E+00  0.453527
  3 P  2.22588000E+00  0.252154

  4 S  3.18649000E+00 -0.251830
  4 S  1.14427000E+00  0.061589
  4 S  4.20377000E-01  1.060180

  5 P  3.18649000E+00 -0.014299
  5 P  1.14427000E+00  0.323572
  5 P  4.20377000E-01  0.743507

  6 S  1.42657000E-01  1.000000

  7 P  1.42657000E-01  1.000000



 Summary of "ao basis" -> "" (cartesian)
 ------------------------------------------------------------------------------
       Tag                 Description            Shells   Functions and Types
 ---------------- ------------------------------  ------  ---------------------
 Cl                          6-31g                   7       13   4s3p


                                 NWChem SCF Module
                                 -----------------


                            Chorine in 6-31g basis set



  ao basis        = "ao basis"
  functions       =    26
  atoms           =     2
  closed shells   =    17
  open shells     =     0
  charge          =   0.00
  wavefunction    = RHF 
  input vectors   = atomic
  output vectors  = ./chlorine.movecs
  use symmetry    = T
  symmetry adapt  = T


 Summary of "ao basis" -> "ao basis" (cartesian)
 ------------------------------------------------------------------------------
       Tag                 Description            Shells   Functions and Types
 ---------------- ------------------------------  ------  ---------------------
 Cl                          6-31g                   7       13   4s3p


      Symmetry analysis of basis
      --------------------------

        a1g         7
        a1u         0
        a2g         0
        a2u         7
        b1g         0
        b1u         0
        b2g         0
        b2u         0
        eg          6
        eu          6


 Forming initial guess at       0.1s


      Superposition of Atomic Density Guess
      -------------------------------------

 Sum of atomic energies:        -918.90116543

      Non-variational initial energy
      ------------------------------

 Total energy =    -923.703611
 1-e energy   =   -1576.898431
 2-e energy   =     493.424146
 HOMO         =      -0.108372
 LUMO         =       0.322655


      Symmetry analysis of molecular orbitals - initial
      -------------------------------------------------

  Numbering of irreducible representations: 

     1 a1g         2 a1u         3 a2g         4 a2u         5 b1g     
     6 b1u         7 b2g         8 b2u         9 eg         10 eu      

  Orbital symmetries:

     1 a2u         2 a1g         3 a1g         4 a2u         5 a1g     
     6 eu          7 eu          8 eg          9 eg         10 a2u     
    11 a1g        12 eu         13 eu         14 a2u        15 a1g     
    16 eg         17 eg         18 a2u        19 a1g        20 eu      
    21 eu         22 a1g        23 eg         24 eg         25 a2u     
    26 a2u     


 Starting SCF solution at       0.1s



 ----------------------------------------------
         Quadratically convergent ROHF

 Convergence threshold     :          1.000E-04
 Maximum no. of iterations :           30
 Final Fock-matrix accuracy:          1.000E-07
 ----------------------------------------------


 #quartets = 3.710D+03 #integrals = 1.290D+04 #direct =  0.0% #cached =100.0%


 Integral file          = ./chlorine.aoints.0
 Record size in doubles =  65536        No. of integs per rec  =  43688
 Max. records in memory =      2        Max. records in file   = 926490
 No. of bits per label  =      8        No. of bits per value  =     64


File balance: exchanges=     0  moved=     0  time=   0.0


              iter       energy          gnorm     gmax       time
             ----- ------------------- --------- --------- --------
                 1     -914.3904602572  9.38D-01  4.25D-01      0.2
                 2     -914.4573864088  2.02D-01  9.06D-02      0.2
                 3     -914.4610284948  3.27D-03  1.80D-03      0.2
                 4     -914.4610295281  8.08D-06  4.12D-06      0.2


       Final RHF  results 
       ------------------ 

         Total SCF energy =   -914.461029528059
      One-electron energy =  -1571.198042964723
      Two-electron energy =    496.966339741105
 Nuclear repulsion energy =    159.770673695560

        Time for solution =      0.1s



       Symmetry analysis of molecular orbitals - final
       -----------------------------------------------

  Numbering of irreducible representations: 

     1 a1g         2 a1u         3 a2g         4 a2u         5 b1g     
     6 b1u         7 b2g         8 b2u         9 eg         10 eu      

  Orbital symmetries:

     1 a1g         2 a2u         3 a1g         4 a2u         5 a1g     
     6 eu          7 eu          8 eg          9 eg         10 a2u     
    11 a1g        12 eu         13 eu         14 a2u        15 a1g     
    16 eg         17 eg         18 a1g        19 a2u        20 eu      
    21 eu         22 a1g        23 eg         24 eg         25 a2u     
    26 a2u     

             Final eigenvalues
             -----------------

              1      
    1 -105.0621
    2 -105.0621
    3  -11.0900
    4  -10.9353
    5   -8.5735
    6   -8.4074
    7   -8.4074
    8   -8.3698
    9   -8.3698
   10   -8.3607
   11   -1.8483
   12   -1.0311
   13   -1.0311
   14   -0.8854
   15   -0.6086
   16   -0.2950
   17   -0.2950
   18    0.3628
   19    0.3645
   20    0.3881
   21    0.3881
   22    0.5485
   23    0.6854
   24    0.6854
   25    0.7986
   26    1.2325

                       ROHF Final Molecular Orbital Analysis
                       -------------------------------------

 Vector    8  Occ=2.000000D+00  E=-8.369807D+00  Symmetry=eg
              MO Center=  2.6D-17, -2.0D-17,  9.8D-18, r^2= 2.9D-01
   Bfn.  Coefficient  Atom+Function         Bfn.  Coefficient  Atom+Function  
  ----- ------------  ---------------      ----- ------------  ---------------
     3      0.558734  1 Cl px                16     -0.558734  2 Cl px         
     4     -0.429397  1 Cl py                17      0.429397  2 Cl py         

 Vector    9  Occ=2.000000D+00  E=-8.369807D+00  Symmetry=eg
              MO Center=  1.6D-17,  2.1D-17, -3.2D-17, r^2= 2.9D-01
   Bfn.  Coefficient  Atom+Function         Bfn.  Coefficient  Atom+Function  
  ----- ------------  ---------------      ----- ------------  ---------------
     4      0.558734  1 Cl py                17     -0.558734  2 Cl py         
     3      0.429397  1 Cl px                16     -0.429397  2 Cl px         

 Vector   10  Occ=2.000000D+00  E=-8.360690D+00  Symmetry=a2u
              MO Center= -4.0D-19,  7.3D-20,  7.5D-17, r^2= 3.1D-01
   Bfn.  Coefficient  Atom+Function         Bfn.  Coefficient  Atom+Function  
  ----- ------------  ---------------      ----- ------------  ---------------
     5      0.710637  1 Cl pz                18      0.710637  2 Cl pz         

 Vector   11  Occ=2.000000D+00  E=-1.848315D+00  Symmetry=a1g
              MO Center=  1.6D-18, -2.0D-19, -1.0D-17, r^2= 5.3D-01
   Bfn.  Coefficient  Atom+Function         Bfn.  Coefficient  Atom+Function  
  ----- ------------  ---------------      ----- ------------  ---------------
     6      0.512916  1 Cl s                 19      0.512916  2 Cl s          
     2     -0.361724  1 Cl s                 15     -0.361724  2 Cl s          
     9      0.286633  1 Cl pz                22     -0.286633  2 Cl pz         
     5     -0.178097  1 Cl pz                18      0.178097  2 Cl pz         

 Vector   12  Occ=2.000000D+00  E=-1.031079D+00  Symmetry=eu
              MO Center= -4.7D-32, -3.7D-33, -1.1D-17, r^2= 9.1D-01
   Bfn.  Coefficient  Atom+Function         Bfn.  Coefficient  Atom+Function  
  ----- ------------  ---------------      ----- ------------  ---------------
     7      0.596408  1 Cl px                20      0.596408  2 Cl px         
     3     -0.249280  1 Cl px                16     -0.249280  2 Cl px         

 Vector   13  Occ=2.000000D+00  E=-1.031079D+00  Symmetry=eu
              MO Center=  8.8D-18, -1.1D-16, -1.5D-15, r^2= 9.1D-01
   Bfn.  Coefficient  Atom+Function         Bfn.  Coefficient  Atom+Function  
  ----- ------------  ---------------      ----- ------------  ---------------
     8      0.596408  1 Cl py                21      0.596408  2 Cl py         
     4     -0.249280  1 Cl py                17     -0.249280  2 Cl py         

 Vector   14  Occ=2.000000D+00  E=-8.853545D-01  Symmetry=a2u
              MO Center=  3.4D-32,  7.0D-33,  3.7D-16, r^2= 1.4D+00
   Bfn.  Coefficient  Atom+Function         Bfn.  Coefficient  Atom+Function  
  ----- ------------  ---------------      ----- ------------  ---------------
    10      0.852726  1 Cl s                 23     -0.852726  2 Cl s          
     6      0.678605  1 Cl s                 19     -0.678605  2 Cl s          
     2     -0.217272  1 Cl s                 15      0.217272  2 Cl s          

 Vector   15  Occ=2.000000D+00  E=-6.086430D-01  Symmetry=a1g
              MO Center= -2.7D-17,  3.4D-16, -2.2D-16, r^2= 1.6D+00
   Bfn.  Coefficient  Atom+Function         Bfn.  Coefficient  Atom+Function  
  ----- ------------  ---------------      ----- ------------  ---------------
     9      0.594008  1 Cl pz                22     -0.594008  2 Cl pz         
    10     -0.307767  1 Cl s                 23     -0.307767  2 Cl s          
     5     -0.259420  1 Cl pz                18      0.259420  2 Cl pz         

 Vector   16  Occ=2.000000D+00  E=-2.950231D-01  Symmetry=eg
              MO Center=  3.2D-16, -1.5D-16, -2.7D-15, r^2= 1.7D+00
   Bfn.  Coefficient  Atom+Function         Bfn.  Coefficient  Atom+Function  
  ----- ------------  ---------------      ----- ------------  ---------------
     7      0.632499  1 Cl px                20     -0.632499  2 Cl px         
    11      0.579326  1 Cl px                24     -0.579326  2 Cl px         
     8     -0.305130  1 Cl py                21      0.305130  2 Cl py         
    12     -0.279478  1 Cl py                25      0.279478  2 Cl py         
     3     -0.189981  1 Cl px                16      0.189981  2 Cl px         

 Vector   17  Occ=2.000000D+00  E=-2.950231D-01  Symmetry=eg
              MO Center= -3.2D-18, -6.6D-18,  1.1D-15, r^2= 1.7D+00
   Bfn.  Coefficient  Atom+Function         Bfn.  Coefficient  Atom+Function  
  ----- ------------  ---------------      ----- ------------  ---------------
     8      0.632499  1 Cl py                21     -0.632499  2 Cl py         
    12      0.579326  1 Cl py                25     -0.579326  2 Cl py         
     7      0.305130  1 Cl px                20     -0.305130  2 Cl px         
    11      0.279478  1 Cl px                24     -0.279478  2 Cl px         
     4     -0.189981  1 Cl py                17      0.189981  2 Cl py         

 Vector   18  Occ=0.000000D+00  E= 3.627839D-01  Symmetry=a1g
              MO Center=  8.0D-18, -1.0D-16,  1.7D-16, r^2= 2.8D+00
   Bfn.  Coefficient  Atom+Function         Bfn.  Coefficient  Atom+Function  
  ----- ------------  ---------------      ----- ------------  ---------------
    13      1.095603  1 Cl pz                26     -1.095603  2 Cl pz         
     6     -0.879506  1 Cl s                 19     -0.879506  2 Cl s          
    10      0.516553  1 Cl s                 23      0.516553  2 Cl s          

 Vector   19  Occ=0.000000D+00  E= 3.645314D-01  Symmetry=a2u
              MO Center=  7.3D-18, -9.0D-18,  8.9D-16, r^2= 4.7D+00
   Bfn.  Coefficient  Atom+Function         Bfn.  Coefficient  Atom+Function  
  ----- ------------  ---------------      ----- ------------  ---------------
    10     10.830889  1 Cl s                 23    -10.830889  2 Cl s          
    13      4.471386  1 Cl pz                26      4.471386  2 Cl pz         
     6      0.491204  1 Cl s                 19     -0.491204  2 Cl s          
     9      0.214435  1 Cl pz                22      0.214435  2 Cl pz         

 Vector   20  Occ=0.000000D+00  E= 3.881033D-01  Symmetry=eu
              MO Center= -6.5D-17,  1.5D-14, -3.3D-15, r^2= 3.2D+00
   Bfn.  Coefficient  Atom+Function         Bfn.  Coefficient  Atom+Function  
  ----- ------------  ---------------      ----- ------------  ---------------
    12      0.717628  1 Cl py                25      0.717628  2 Cl py         
     8     -0.601982  1 Cl py                21     -0.601982  2 Cl py         
     4      0.152726  1 Cl py                17      0.152726  2 Cl py         

 Vector   21  Occ=0.000000D+00  E= 3.881033D-01  Symmetry=eu
              MO Center=  4.0D-14,  1.8D-16,  7.9D-15, r^2= 3.2D+00
   Bfn.  Coefficient  Atom+Function         Bfn.  Coefficient  Atom+Function  
  ----- ------------  ---------------      ----- ------------  ---------------
    11      0.717628  1 Cl px                24      0.717628  2 Cl px         
     7     -0.601982  1 Cl px                20     -0.601982  2 Cl px         
     3      0.152726  1 Cl px                16      0.152726  2 Cl px         

 Vector   22  Occ=0.000000D+00  E= 5.484967D-01  Symmetry=a1g
              MO Center= -4.0D-14, -1.5D-14,  2.3D-15, r^2= 3.7D+00
   Bfn.  Coefficient  Atom+Function         Bfn.  Coefficient  Atom+Function  
  ----- ------------  ---------------      ----- ------------  ---------------
    10      0.884368  1 Cl s                 23      0.884368  2 Cl s          
    13     -0.858650  1 Cl pz                26      0.858650  2 Cl pz         
     6     -0.763927  1 Cl s                 19     -0.763927  2 Cl s          
     9      0.587524  1 Cl pz                22     -0.587524  2 Cl pz         
     5     -0.169048  1 Cl pz                18      0.169048  2 Cl pz         

 Vector   23  Occ=0.000000D+00  E= 6.853794D-01  Symmetry=eg
              MO Center= -3.2D-20, -1.5D-17,  3.6D-15, r^2= 3.4D+00
   Bfn.  Coefficient  Atom+Function         Bfn.  Coefficient  Atom+Function  
  ----- ------------  ---------------      ----- ------------  ---------------
    12      1.758011  1 Cl py                25     -1.758011  2 Cl py         
     8     -0.969229  1 Cl py                21      0.969229  2 Cl py         
     4      0.217267  1 Cl py                17     -0.217267  2 Cl py         

 Vector   24  Occ=0.000000D+00  E= 6.853794D-01  Symmetry=eg
              MO Center= -2.3D-14,  4.8D-17, -5.3D-15, r^2= 3.4D+00
   Bfn.  Coefficient  Atom+Function         Bfn.  Coefficient  Atom+Function  
  ----- ------------  ---------------      ----- ------------  ---------------
    11      1.758011  1 Cl px                24     -1.758011  2 Cl px         
     7     -0.969229  1 Cl px                20      0.969229  2 Cl px         
     3      0.217267  1 Cl px                16     -0.217267  2 Cl px         

 Vector   25  Occ=0.000000D+00  E= 7.986294D-01  Symmetry=a2u
              MO Center=  2.3D-14,  1.3D-16, -3.8D-15, r^2= 2.8D+00
   Bfn.  Coefficient  Atom+Function         Bfn.  Coefficient  Atom+Function  
  ----- ------------  ---------------      ----- ------------  ---------------
    10     13.456512  1 Cl s                 23    -13.456512  2 Cl s          
    13      4.160844  1 Cl pz                26      4.160844  2 Cl pz         
     9      0.896687  1 Cl pz                22      0.896687  2 Cl pz         
     6     -0.798704  1 Cl s                 19      0.798704  2 Cl s          
     5     -0.156632  1 Cl pz                18     -0.156632  2 Cl pz         

 Vector   26  Occ=0.000000D+00  E= 1.232468D+00  Symmetry=a2u
              MO Center= -1.3D-15, -3.5D-18,  1.0D-14, r^2= 1.9D+00
   Bfn.  Coefficient  Atom+Function         Bfn.  Coefficient  Atom+Function  
  ----- ------------  ---------------      ----- ------------  ---------------
    10     10.483456  1 Cl s                 23    -10.483456  2 Cl s          
    13      3.859491  1 Cl pz                26      3.859491  2 Cl pz         
     6     -2.778836  1 Cl s                 19      2.778836  2 Cl s          
     9     -2.077270  1 Cl pz                22     -2.077270  2 Cl pz         
     5      0.237957  1 Cl pz                18      0.237957  2 Cl pz         


 center of mass
 --------------
 x =   0.00000000 y =   0.00000000 z =   0.00000000

 moments of inertia (a.u.)
 ------------------
          57.207491808978           0.000000000000           0.000000000000
           0.000000000000          57.207491808978           0.000000000000
           0.000000000000           0.000000000000           0.000000000000

  Mulliken analysis of the total density
  --------------------------------------

    Atom       Charge   Shell Charges
 -----------   ------   -------------------------------------------------------
    1 Cl  17    17.00   2.00  2.00  5.99  1.44  4.24  0.80  0.53
    2 Cl  17    17.00   2.00  2.00  5.99  1.44  4.24  0.80  0.53

       Multipole analysis of the density wrt the origin
       ------------------------------------------------

     L   x y z        total         open         nuclear
     -   - - -        -----         ----         -------
     0   0 0 0     -0.000000      0.000000     34.000000

     1   1 0 0     -0.000000      0.000000      0.000000
     1   0 1 0     -0.000000      0.000000      0.000000
     1   0 0 1      0.000000      0.000000      0.000000

     2   2 0 0    -16.886270      0.000000      0.000000
     2   1 1 0     -0.000000      0.000000      0.000000
     2   1 0 1      0.000000      0.000000      0.000000
     2   0 2 0    -16.886270      0.000000      0.000000
     2   0 1 1     -0.000000      0.000000      0.000000
     2   0 0 2    -21.149458      0.000000     27.811248


 Parallel integral file used       2 records with       0 large values


 Task  times  cpu:        0.2s     wall:        0.3s


                                NWChem Input Module
                                -------------------


 Summary of allocated global arrays
-----------------------------------
  No active global arrays



                         GA Statistics for process    0
                         ------------------------------

       create   destroy   get      put      acc     scatter   gather  read&inc
calls:  272      272     3626     1814     1530        0        0       93     
number of processes/call 0.00e+00 0.00e+00 0.00e+00 0.00e+00 0.00e+00
bytes total:             2.24e+06 1.08e+06 1.16e+06 0.00e+00 0.00e+00 7.44e+02
bytes remote:            2.17e+05 8.65e+04 1.42e+05 0.00e+00 0.00e+00 0.00e+00
Max memory consumed for GA by this process: 63456 bytes

MA_summarize_allocated_blocks: starting scan ...
MA_summarize_allocated_blocks: scan completed: 0 heap blocks, 0 stack blocks
MA usage statistics:

	allocation statistics:
					      heap	     stack
					      ----	     -----
	current number of blocks	         0	         0
	maximum number of blocks	        18	        14
	current total bytes		         0	         0
	maximum total bytes		   1063760	  22509592
	maximum total K-bytes		      1064	     22510
	maximum total M-bytes		         2	        23


                                     CITATION
                                     --------
                Please cite the following reference when publishing
                           results obtained with NWChem:

          E. Aprà, E. J. Bylaska, W. A. de Jong, N. Govind, K. Kowalski,
       T. P. Straatsma, M. Valiev, H. J. J. van Dam, Y. Alexeev, J. Anchell,
       V. Anisimov, F. W. Aquino, R. Atta-Fynn, J. Autschbach, N. P. Bauman,
     J. C. Becca, D. E. Bernholdt, K. Bhaskaran-Nair, S. Bogatko, P. Borowski,
        J. Boschen, J. Brabec, A. Bruner, E. Cauët, Y. Chen, G. N. Chuev,
      C. J. Cramer, J. Daily, M. J. O. Deegan, T. H. Dunning Jr., M. Dupuis,
   K. G. Dyall, G. I. Fann, S. A. Fischer, A. Fonari, H. Früchtl, L. Gagliardi,
      J. Garza, N. Gawande, S. Ghosh, K. Glaesemann, A. W. Götz, J. Hammond,
       V. Helms, E. D. Hermes, K. Hirao, S. Hirata, M. Jacquelin, L. Jensen,
   B. G. Johnson, H. Jónsson, R. A. Kendall, M. Klemm, R. Kobayashi, V. Konkov,
      S. Krishnamoorthy, M. Krishnan, Z. Lin, R. D. Lins, R. J. Littlefield,
      A. J. Logsdail, K. Lopata, W. Ma, A. V. Marenich, J. Martin del Campo,
   D. Mejia-Rodriguez, J. E. Moore, J. M. Mullin, T. Nakajima, D. R. Nascimento,
    J. A. Nichols, P. J. Nichols, J. Nieplocha, A. Otero-de-la-Roza, B. Palmer,
    A. Panyala, T. Pirojsirikul, B. Peng, R. Peverati, J. Pittner, L. Pollack,
   R. M. Richard, P. Sadayappan, G. C. Schatz, W. A. Shelton, D. W. Silverstein,
   D. M. A. Smith, T. A. Soares, D. Song, M. Swart, H. L. Taylor, G. S. Thomas,
            V. Tipparaju, D. G. Truhlar, K. Tsemekhman, T. Van Voorhis,
     Á. Vázquez-Mayagoitia, P. Verma, O. Villa, A. Vishnu, K. D. Vogiatzis,
        D. Wang, J. H. Weare, M. J. Williamson, T. L. Windus, K. Woliński,
        A. T. Wong, Q. Wu, C. Yang, Q. Yu, M. Zacharias, Z. Zhang, Y. Zhao,
                                and R. J. Harrison
                        "NWChem: Past, present, and future
                         J. Chem. Phys. 152, 184102 (2020)
                               doi:10.1063/5.0004997

                                      AUTHORS
                                      -------
     E. Apra, E. J. Bylaska, N. Govind, K. Kowalski, M. Valiev, W. A. de Jong,
      T. P. Straatsma, H. J. J. van Dam, D. Wang, T. L. Windus, N. P. Bauman,
       A. Panyala, J. Hammond, J. Autschbach, K. Bhaskaran-Nair, J. Brabec,
    K. Lopata, S. A. Fischer, S. Krishnamoorthy, M. Jacquelin, W. Ma, M. Klemm,
       O. Villa, Y. Chen, V. Anisimov, F. Aquino, S. Hirata, M. T. Hackler,
           Eric Hermes, L. Jensen, J. E. Moore, J. C. Becca, V. Konjkov,
            D. Mejia-Rodriguez, T. Risthaus, M. Malagoli, A. Marenich,
   A. Otero-de-la-Roza, J. Mullin, P. Nichols, R. Peverati, J. Pittner, Y. Zhao,
        P.-D. Fan, A. Fonari, M. J. Williamson, R. J. Harrison, J. R. Rehr,
      M. Dupuis, D. Silverstein, D. M. A. Smith, J. Nieplocha, V. Tipparaju,
      M. Krishnan, B. E. Van Kuiken, A. Vazquez-Mayagoitia, M. Swart, Q. Wu,
   T. Van Voorhis, A. A. Auer, M. Nooijen, L. D. Crosby, E. Brown, G. Cisneros,
     G. I. Fann, H. Fruchtl, J. Garza, K. Hirao, R. A. Kendall, J. A. Nichols,
       K. Tsemekhman, K. Wolinski, J. Anchell, D. E. Bernholdt, P. Borowski,
       T. Clark, D. Clerc, H. Dachsel, M. J. O. Deegan, K. Dyall, D. Elwood,
      E. Glendening, M. Gutowski, A. C. Hess, J. Jaffe, B. G. Johnson, J. Ju,
        R. Kobayashi, R. Kutteh, Z. Lin, R. Littlefield, X. Long, B. Meng,
      T. Nakajima, S. Niu, L. Pollack, M. Rosing, K. Glaesemann, G. Sandrone,
      M. Stave, H. Taylor, G. Thomas, J. H. van Lenthe, A. T. Wong, Z. Zhang.

 Total times  cpu:        0.2s     wall:        0.3s
