 argument  1 = cl2_scf_6-31g.nw
                                         
                                         


             Northwest Computational Chemistry Package (NWChem) 7.0.2
             --------------------------------------------------------


                    Environmental Molecular Sciences Laboratory
                       Pacific Northwest National Laboratory
                                Richland, WA 99352

                              Copyright (c) 1994-2020
                       Pacific Northwest National Laboratory
                            Battelle Memorial Institute

             NWChem is an open-source computational chemistry package
                        distributed under the terms of the
                      Educational Community License (ECL) 2.0
             A copy of the license is included with this distribution
                              in the LICENSE.TXT file

                                  ACKNOWLEDGMENT
                                  --------------

            This software and its documentation were developed at the
            EMSL at Pacific Northwest National Laboratory, a multiprogram
            national laboratory, operated for the U.S. Department of Energy
            by Battelle under Contract Number DE-AC05-76RL01830. Support
            for this work was provided by the Department of Energy Office
            of Biological and Environmental Research, Office of Basic
            Energy Sciences, and the Office of Advanced Scientific Computing.


           Job information
           ---------------

    hostname        = DESKTOP-M7D5GNM
    program         = /usr/bin/nwchem
    date            = Mon Oct 14 15:52:24 2024

    compiled        = Sat_Apr_09_17:12:10_2022
    source          = /build/nwchem-f1f4gx/nwchem-7.0.2/build-openmpi
    nwchem branch   = 7.0.2
    nwchem revision = N/A
    ga revision     = 5.8.1
    use scalapack   = T
    input           = cl2_scf_6-31g.nw
    prefix          = chlorine.
    data base       = ./chlorine.db
    status          = startup
    nproc           =        4
    time left       =     -1s



           Memory information
           ------------------

    heap     =   13107198 doubles =    100.0 Mbytes
    stack    =   13107195 doubles =    100.0 Mbytes
    global   =   26214400 doubles =    200.0 Mbytes (distinct from heap & stack)
    total    =   52428793 doubles =    400.0 Mbytes
    verify   = yes
    hardfail = no 


           Directory information
           ---------------------

  0 permanent = .
  0 scratch   = .




                                NWChem Input Module
                                -------------------


                            Chorine in 6-31g basis set
                            --------------------------
 ORDER OF PRIMARY AXIS IS BEING SET TO 4
 D4H symmetry detected


                             Geometry "geometry" -> ""
                             -------------------------

 Output coordinates in a.u. (scale by  1.000000000 to convert to a.u.)

  No.       Tag          Charge          X              Y              Z
 ---- ---------------- ---------- -------------- -------------- --------------
    1 Cl                  17.0000     0.00000000     0.00000000    -0.75000000
    2 Cl                  17.0000     0.00000000     0.00000000     0.75000000

      Atomic Mass 
      ----------- 

      Cl                34.968850


 Effective nuclear repulsion energy (a.u.)     192.6666666667

            Nuclear Dipole moment (a.u.) 
            ----------------------------
        X                 Y               Z
 ---------------- ---------------- ----------------
     0.0000000000     0.0000000000     0.0000000000

      Symmetry information
      --------------------

 Group name             D4h       
 Group number             28
 Group order              16
 No. of unique centers     1

      Symmetry unique atoms

     1


            XYZ format geometry
            -------------------
     2
 geometry
 Cl                    0.00000000     0.00000000    -0.39688294
 Cl                    0.00000000     0.00000000     0.39688294

 ==============================================================================
                                internuclear distances
 ------------------------------------------------------------------------------
       center one      |      center two      | atomic units |       a.u.
 ------------------------------------------------------------------------------
    2 Cl               |   1 Cl               |     1.50000  |     1.50000
 ------------------------------------------------------------------------------
                         number of included internuclear distances:          1
 ==============================================================================



                      Basis "ao basis" -> "" (cartesian)
                      -----
  Cl (Chlorine)
  -------------
            Exponent  Coefficients 
       -------------- ---------------------------------------------------------
  1 S  2.51801000E+04  0.001833
  1 S  3.78035000E+03  0.014034
  1 S  8.60474000E+02  0.069097
  1 S  2.42145000E+02  0.237452
  1 S  7.73349000E+01  0.483034
  1 S  2.62470000E+01  0.339856

  2 S  4.91765000E+02 -0.002297
  2 S  1.16984000E+02 -0.030714
  2 S  3.74153000E+01 -0.112528
  2 S  1.37834000E+01  0.045016
  2 S  5.45215000E+00  0.589353
  2 S  2.22588000E+00  0.465206

  3 P  4.91765000E+02  0.003989
  3 P  1.16984000E+02  0.030318
  3 P  3.74153000E+01  0.129880
  3 P  1.37834000E+01  0.327951
  3 P  5.45215000E+00  0.453527
  3 P  2.22588000E+00  0.252154

  4 S  3.18649000E+00 -0.251830
  4 S  1.14427000E+00  0.061589
  4 S  4.20377000E-01  1.060180

  5 P  3.18649000E+00 -0.014299
  5 P  1.14427000E+00  0.323572
  5 P  4.20377000E-01  0.743507

  6 S  1.42657000E-01  1.000000

  7 P  1.42657000E-01  1.000000



 Summary of "ao basis" -> "" (cartesian)
 ------------------------------------------------------------------------------
       Tag                 Description            Shells   Functions and Types
 ---------------- ------------------------------  ------  ---------------------
 Cl                          6-31g                   7       13   4s3p


                                 NWChem SCF Module
                                 -----------------


                            Chorine in 6-31g basis set



  ao basis        = "ao basis"
  functions       =    26
  atoms           =     2
  closed shells   =    17
  open shells     =     0
  charge          =   0.00
  wavefunction    = RHF 
  input vectors   = atomic
  output vectors  = ./chlorine.movecs
  use symmetry    = T
  symmetry adapt  = T


 Summary of "ao basis" -> "ao basis" (cartesian)
 ------------------------------------------------------------------------------
       Tag                 Description            Shells   Functions and Types
 ---------------- ------------------------------  ------  ---------------------
 Cl                          6-31g                   7       13   4s3p


      Symmetry analysis of basis
      --------------------------

        a1g         7
        a1u         0
        a2g         0
        a2u         7
        b1g         0
        b1u         0
        b2g         0
        b2u         0
        eg          6
        eu          6


 Forming initial guess at       0.2s


      Superposition of Atomic Density Guess
      -------------------------------------

 Sum of atomic energies:        -918.90116543

      Non-variational initial energy
      ------------------------------

 Total energy =    -923.878520
 1-e energy   =   -1629.298710
 2-e energy   =     512.753523
 HOMO         =      -0.080036
 LUMO         =       0.331622


      Symmetry analysis of molecular orbitals - initial
      -------------------------------------------------

  Numbering of irreducible representations: 

     1 a1g         2 a1u         3 a2g         4 a2u         5 b1g     
     6 b1u         7 b2g         8 b2u         9 eg         10 eu      

  Orbital symmetries:

     1 a2u         2 a1g         3 a1g         4 a2u         5 a1g     
     6 eu          7 eu          8 eg          9 eg         10 a2u     
    11 a1g        12 eu         13 eu         14 a2u        15 a1g     
    16 eg         17 eg         18 a2u        19 eu         20 eu      
    21 a1g        22 a1g        23 eg         24 eg         25 a2u     
    26 a2u     


 Starting SCF solution at       0.3s



 ----------------------------------------------
         Quadratically convergent ROHF

 Convergence threshold     :          1.000E-04
 Maximum no. of iterations :           30
 Final Fock-matrix accuracy:          1.000E-07
 ----------------------------------------------


 #quartets = 3.710D+03 #integrals = 1.292D+04 #direct =  0.0% #cached =100.0%


 Integral file          = ./chlorine.aoints.0
 Record size in doubles =  65536        No. of integs per rec  =  43688
 Max. records in memory =      2        Max. records in file   = 463244
 No. of bits per label  =      8        No. of bits per value  =     64


File balance: exchanges=     0  moved=     0  time=   0.0


              iter       energy          gnorm     gmax       time
             ----- ------------------- --------- --------- --------
                 1     -910.3154029562  1.07D+00  4.07D-01      0.2
                 2     -910.3954720641  2.31D-01  1.09D-01      0.3
                 3     -910.3997100085  1.04D-01  4.14D-02      0.3
                 4     -910.4004781223  1.38D-03  6.31D-04      0.3
                 5     -910.4004782266  1.93D-06  9.46D-07      0.4


       Final RHF  results 
       ------------------ 

         Total SCF energy =   -910.400478226639
      One-electron energy =  -1620.267496608812
      Two-electron energy =    517.200351715506
 Nuclear repulsion energy =    192.666666666667

        Time for solution =      0.2s



       Symmetry analysis of molecular orbitals - final
       -----------------------------------------------

  Numbering of irreducible representations: 

     1 a1g         2 a1u         3 a2g         4 a2u         5 b1g     
     6 b1u         7 b2g         8 b2u         9 eg         10 eu      

  Orbital symmetries:

     1 a2u         2 a1g         3 a1g         4 a2u         5 a1g     
     6 eu          7 eu          8 eg          9 eg         10 a2u     
    11 a1g        12 eu         13 eu         14 a2u        15 a1g     
    16 eg         17 eg         18 eu         19 eu         20 a2u     
    21 a1g        22 a1g        23 eg         24 eg         25 a2u     
    26 a2u     

             Final eigenvalues
             -----------------

              1      
    1 -105.4346
    2 -105.4345
    3  -11.8473
    4  -11.2295
    5   -9.1102
    6   -8.8536
    7   -8.8536
    8   -8.7120
    9   -8.7120
   10   -8.5836
   11   -1.8441
   12   -1.1747
   13   -1.1747
   14   -0.8907
   15   -0.5146
   16   -0.2818
   17   -0.2818
   18    0.3432
   19    0.3432
   20    0.3820
   21    0.4020
   22    0.5586
   23    0.6755
   24    0.6755
   25    0.8155
   26    1.4435

                       ROHF Final Molecular Orbital Analysis
                       -------------------------------------

 Vector    8  Occ=2.000000D+00  E=-8.712037D+00  Symmetry=eg
              MO Center=  6.0D-21,  1.7D-21,  1.1D-14, r^2= 2.1D-01
   Bfn.  Coefficient  Atom+Function         Bfn.  Coefficient  Atom+Function  
  ----- ------------  ---------------      ----- ------------  ---------------
     3      0.683258  1 Cl px                16     -0.683258  2 Cl px         
     4      0.193017  1 Cl py                17     -0.193017  2 Cl py         

 Vector    9  Occ=2.000000D+00  E=-8.712037D+00  Symmetry=eg
              MO Center=  2.9D-19, -1.0D-18,  2.3D-15, r^2= 2.1D-01
   Bfn.  Coefficient  Atom+Function         Bfn.  Coefficient  Atom+Function  
  ----- ------------  ---------------      ----- ------------  ---------------
     4      0.683258  1 Cl py                17     -0.683258  2 Cl py         
     3     -0.193017  1 Cl px                16      0.193017  2 Cl px         

 Vector   10  Occ=2.000000D+00  E=-8.583615D+00  Symmetry=a2u
              MO Center= -1.2D-18,  4.0D-18,  6.6D-17, r^2= 2.4D-01
   Bfn.  Coefficient  Atom+Function         Bfn.  Coefficient  Atom+Function  
  ----- ------------  ---------------      ----- ------------  ---------------
     5      0.727628  1 Cl pz                18      0.727628  2 Cl pz         

 Vector   11  Occ=2.000000D+00  E=-1.844131D+00  Symmetry=a1g
              MO Center=  8.8D-18,  4.4D-18,  3.5D-18, r^2= 5.7D-01
   Bfn.  Coefficient  Atom+Function         Bfn.  Coefficient  Atom+Function  
  ----- ------------  ---------------      ----- ------------  ---------------
     6      0.521346  1 Cl s                 19      0.521346  2 Cl s          
     2     -0.412459  1 Cl s                 15     -0.412459  2 Cl s          
     9      0.264222  1 Cl pz                22     -0.264222  2 Cl pz         

 Vector   12  Occ=2.000000D+00  E=-1.174720D+00  Symmetry=eu
              MO Center= -4.6D-16, -9.1D-16, -8.0D-16, r^2= 8.0D-01
   Bfn.  Coefficient  Atom+Function         Bfn.  Coefficient  Atom+Function  
  ----- ------------  ---------------      ----- ------------  ---------------
     8      0.542962  1 Cl py                21      0.542962  2 Cl py         
     7      0.276776  1 Cl px                20      0.276776  2 Cl px         
     4     -0.240098  1 Cl py                17     -0.240098  2 Cl py         

 Vector   13  Occ=2.000000D+00  E=-1.174720D+00  Symmetry=eu
              MO Center=  4.0D-22, -2.0D-22,  2.3D-17, r^2= 8.0D-01
   Bfn.  Coefficient  Atom+Function         Bfn.  Coefficient  Atom+Function  
  ----- ------------  ---------------      ----- ------------  ---------------
     7      0.542962  1 Cl px                20      0.542962  2 Cl px         
     8     -0.276776  1 Cl py                21     -0.276776  2 Cl py         
     3     -0.240098  1 Cl px                16     -0.240098  2 Cl px         

 Vector   14  Occ=2.000000D+00  E=-8.906912D-01  Symmetry=a2u
              MO Center=  4.6D-18, -6.5D-19,  8.8D-16, r^2= 1.3D+00
   Bfn.  Coefficient  Atom+Function         Bfn.  Coefficient  Atom+Function  
  ----- ------------  ---------------      ----- ------------  ---------------
    10      0.912529  1 Cl s                 23     -0.912529  2 Cl s          
     6      0.828150  1 Cl s                 19     -0.828150  2 Cl s          
     2     -0.168394  1 Cl s                 15      0.168394  2 Cl s          

 Vector   15  Occ=2.000000D+00  E=-5.146153D-01  Symmetry=a1g
              MO Center=  1.3D-16,  2.5D-16,  1.9D-16, r^2= 1.5D+00
   Bfn.  Coefficient  Atom+Function         Bfn.  Coefficient  Atom+Function  
  ----- ------------  ---------------      ----- ------------  ---------------
     9      0.659886  1 Cl pz                22     -0.659886  2 Cl pz         
    10     -0.289551  1 Cl s                 23     -0.289551  2 Cl s          
     5     -0.272812  1 Cl pz                18      0.272812  2 Cl pz         
    13      0.155312  1 Cl pz                26     -0.155312  2 Cl pz         

 Vector   16  Occ=2.000000D+00  E=-2.818055D-01  Symmetry=eg
              MO Center=  1.8D-18,  2.1D-19, -4.9D-16, r^2= 1.6D+00
   Bfn.  Coefficient  Atom+Function         Bfn.  Coefficient  Atom+Function  
  ----- ------------  ---------------      ----- ------------  ---------------
     7      0.812879  1 Cl px                20     -0.812879  2 Cl px         
    11      0.715454  1 Cl px                24     -0.715454  2 Cl px         
     3     -0.205340  1 Cl px                16      0.205340  2 Cl px         

 Vector   17  Occ=2.000000D+00  E=-2.818055D-01  Symmetry=eg
              MO Center= -2.4D-20,  2.1D-19,  6.1D-16, r^2= 1.6D+00
   Bfn.  Coefficient  Atom+Function         Bfn.  Coefficient  Atom+Function  
  ----- ------------  ---------------      ----- ------------  ---------------
     8      0.812879  1 Cl py                21     -0.812879  2 Cl py         
    12      0.715454  1 Cl py                25     -0.715454  2 Cl py         
     4     -0.205340  1 Cl py                17      0.205340  2 Cl py         

 Vector   18  Occ=0.000000D+00  E= 3.431726D-01  Symmetry=eu
              MO Center= -3.0D-15, -1.3D-16,  4.8D-15, r^2= 3.2D+00
   Bfn.  Coefficient  Atom+Function         Bfn.  Coefficient  Atom+Function  
  ----- ------------  ---------------      ----- ------------  ---------------
    11      0.700563  1 Cl px                24      0.700563  2 Cl px         
     7     -0.534973  1 Cl px                20     -0.534973  2 Cl px         

 Vector   19  Occ=0.000000D+00  E= 3.431726D-01  Symmetry=eu
              MO Center= -1.5D-23,  3.5D-22,  5.6D-17, r^2= 3.2D+00
   Bfn.  Coefficient  Atom+Function         Bfn.  Coefficient  Atom+Function  
  ----- ------------  ---------------      ----- ------------  ---------------
    12      0.700563  1 Cl py                25      0.700563  2 Cl py         
     8     -0.534973  1 Cl py                21     -0.534973  2 Cl py         

 Vector   20  Occ=0.000000D+00  E= 3.819852D-01  Symmetry=a2u
              MO Center=  3.9D-17,  3.0D-18,  3.1D-15, r^2= 4.7D+00
   Bfn.  Coefficient  Atom+Function         Bfn.  Coefficient  Atom+Function  
  ----- ------------  ---------------      ----- ------------  ---------------
    10     18.809698  1 Cl s                 23    -18.809698  2 Cl s          
    13      6.121796  1 Cl pz                26      6.121796  2 Cl pz         
     6      0.618994  1 Cl s                 19     -0.618994  2 Cl s          
     9      0.185317  1 Cl pz                22      0.185317  2 Cl pz         

 Vector   21  Occ=0.000000D+00  E= 4.020073D-01  Symmetry=a1g
              MO Center=  1.2D-14,  1.2D-15,  8.2D-14, r^2= 2.6D+00
   Bfn.  Coefficient  Atom+Function         Bfn.  Coefficient  Atom+Function  
  ----- ------------  ---------------      ----- ------------  ---------------
    13     -1.095822  1 Cl pz                26      1.095822  2 Cl pz         
     6      1.001301  1 Cl s                 19      1.001301  2 Cl s          
    10     -0.667354  1 Cl s                 23     -0.667354  2 Cl s          

 Vector   22  Occ=0.000000D+00  E= 5.585824D-01  Symmetry=a1g
              MO Center= -9.1D-15, -3.9D-16, -2.7D-15, r^2= 3.7D+00
   Bfn.  Coefficient  Atom+Function         Bfn.  Coefficient  Atom+Function  
  ----- ------------  ---------------      ----- ------------  ---------------
    13      1.196988  1 Cl pz                26     -1.196988  2 Cl pz         
    10     -0.754137  1 Cl s                 23     -0.754137  2 Cl s          
     9     -0.683875  1 Cl pz                22      0.683875  2 Cl pz         
     6      0.549103  1 Cl s                 19      0.549103  2 Cl s          
     5      0.202481  1 Cl pz                18     -0.202481  2 Cl pz         

 Vector   23  Occ=0.000000D+00  E= 6.755082D-01  Symmetry=eg
              MO Center=  7.3D-16,  2.1D-16, -2.8D-15, r^2= 3.4D+00
   Bfn.  Coefficient  Atom+Function         Bfn.  Coefficient  Atom+Function  
  ----- ------------  ---------------      ----- ------------  ---------------
    11      1.985873  1 Cl px                24     -1.985873  2 Cl px         
     7     -1.010306  1 Cl px                20      1.010306  2 Cl px         
    12      0.580375  1 Cl py                25     -0.580375  2 Cl py         
     8     -0.295263  1 Cl py                21      0.295263  2 Cl py         
     3      0.197244  1 Cl px                16     -0.197244  2 Cl px         

 Vector   24  Occ=0.000000D+00  E= 6.755082D-01  Symmetry=eg
              MO Center=  3.3D-17, -1.1D-16, -1.7D-15, r^2= 3.4D+00
   Bfn.  Coefficient  Atom+Function         Bfn.  Coefficient  Atom+Function  
  ----- ------------  ---------------      ----- ------------  ---------------
    12      1.985873  1 Cl py                25     -1.985873  2 Cl py         
     8     -1.010306  1 Cl py                21      1.010306  2 Cl py         
    11     -0.580375  1 Cl px                24      0.580375  2 Cl px         
     7      0.295263  1 Cl px                20     -0.295263  2 Cl px         
     4      0.197244  1 Cl py                17     -0.197244  2 Cl py         

 Vector   25  Occ=0.000000D+00  E= 8.155037D-01  Symmetry=a2u
              MO Center= -3.8D-16, -4.9D-17, -5.9D-14, r^2= 2.9D+00
   Bfn.  Coefficient  Atom+Function         Bfn.  Coefficient  Atom+Function  
  ----- ------------  ---------------      ----- ------------  ---------------
    10     25.010842  1 Cl s                 23    -25.010842  2 Cl s          
    13      6.770440  1 Cl pz                26      6.770440  2 Cl pz         
     9      0.962011  1 Cl pz                22      0.962011  2 Cl pz         
     6     -0.584313  1 Cl s                 19      0.584313  2 Cl s          

 Vector   26  Occ=0.000000D+00  E= 1.443542D+00  Symmetry=a2u
              MO Center= -4.2D-16, -5.4D-17,  3.8D-15, r^2= 1.7D+00
   Bfn.  Coefficient  Atom+Function         Bfn.  Coefficient  Atom+Function  
  ----- ------------  ---------------      ----- ------------  ---------------
    10     16.326101  1 Cl s                 23    -16.326101  2 Cl s          
    13      4.888881  1 Cl pz                26      4.888881  2 Cl pz         
     6     -4.805146  1 Cl s                 19      4.805146  2 Cl s          
     9     -3.055252  1 Cl pz                22     -3.055252  2 Cl pz         
     2     -0.741217  1 Cl s                 15      0.741217  2 Cl s          


 center of mass
 --------------
 x =   0.00000000 y =   0.00000000 z =   0.00000000

 moments of inertia (a.u.)
 ------------------
          39.339956250000           0.000000000000           0.000000000000
           0.000000000000          39.339956250000           0.000000000000
           0.000000000000           0.000000000000           0.000000000000

  Mulliken analysis of the total density
  --------------------------------------

    Atom       Charge   Shell Charges
 -----------   ------   -------------------------------------------------------
    1 Cl  17    17.00   2.00  2.00  5.99  1.53  4.34  0.72  0.41
    2 Cl  17    17.00   2.00  2.00  5.99  1.53  4.34  0.72  0.41

       Multipole analysis of the density wrt the origin
       ------------------------------------------------

     L   x y z        total         open         nuclear
     -   - - -        -----         ----         -------
     0   0 0 0     -0.000000      0.000000     34.000000

     1   1 0 0      0.000000      0.000000      0.000000
     1   0 1 0      0.000000      0.000000      0.000000
     1   0 0 1      0.000000      0.000000      0.000000

     2   2 0 0    -16.224293      0.000000      0.000000
     2   1 1 0      0.000000      0.000000      0.000000
     2   1 0 1     -0.000000      0.000000      0.000000
     2   0 2 0    -16.224293      0.000000      0.000000
     2   0 1 1     -0.000000      0.000000      0.000000
     2   0 0 2    -21.800339      0.000000     19.125000


 Parallel integral file used       4 records with       0 large values


 Task  times  cpu:        0.3s     wall:        0.7s


                                NWChem Input Module
                                -------------------


 Summary of allocated global arrays
-----------------------------------
  No active global arrays



                         GA Statistics for process    0
                         ------------------------------

       create   destroy   get      put      acc     scatter   gather  read&inc
calls:  304      304     2597     1341     1572        0        0       89     
number of processes/call 0.00e+00 0.00e+00 0.00e+00 0.00e+00 0.00e+00
bytes total:             2.10e+06 9.38e+05 8.83e+05 0.00e+00 0.00e+00 7.12e+02
bytes remote:            6.38e+05 1.31e+05 5.00e+05 0.00e+00 0.00e+00 0.00e+00
Max memory consumed for GA by this process: 42848 bytes

MA_summarize_allocated_blocks: starting scan ...
MA_summarize_allocated_blocks: scan completed: 0 heap blocks, 0 stack blocks
MA usage statistics:

	allocation statistics:
					      heap	     stack
					      ----	     -----
	current number of blocks	         0	         0
	maximum number of blocks	        18	        14
	current total bytes		         0	         0
	maximum total bytes		   1063728	  22509560
	maximum total K-bytes		      1064	     22510
	maximum total M-bytes		         2	        23


                                     CITATION
                                     --------
                Please cite the following reference when publishing
                           results obtained with NWChem:

          E. Aprà, E. J. Bylaska, W. A. de Jong, N. Govind, K. Kowalski,
       T. P. Straatsma, M. Valiev, H. J. J. van Dam, Y. Alexeev, J. Anchell,
       V. Anisimov, F. W. Aquino, R. Atta-Fynn, J. Autschbach, N. P. Bauman,
     J. C. Becca, D. E. Bernholdt, K. Bhaskaran-Nair, S. Bogatko, P. Borowski,
        J. Boschen, J. Brabec, A. Bruner, E. Cauët, Y. Chen, G. N. Chuev,
      C. J. Cramer, J. Daily, M. J. O. Deegan, T. H. Dunning Jr., M. Dupuis,
   K. G. Dyall, G. I. Fann, S. A. Fischer, A. Fonari, H. Früchtl, L. Gagliardi,
      J. Garza, N. Gawande, S. Ghosh, K. Glaesemann, A. W. Götz, J. Hammond,
       V. Helms, E. D. Hermes, K. Hirao, S. Hirata, M. Jacquelin, L. Jensen,
   B. G. Johnson, H. Jónsson, R. A. Kendall, M. Klemm, R. Kobayashi, V. Konkov,
      S. Krishnamoorthy, M. Krishnan, Z. Lin, R. D. Lins, R. J. Littlefield,
      A. J. Logsdail, K. Lopata, W. Ma, A. V. Marenich, J. Martin del Campo,
   D. Mejia-Rodriguez, J. E. Moore, J. M. Mullin, T. Nakajima, D. R. Nascimento,
    J. A. Nichols, P. J. Nichols, J. Nieplocha, A. Otero-de-la-Roza, B. Palmer,
    A. Panyala, T. Pirojsirikul, B. Peng, R. Peverati, J. Pittner, L. Pollack,
   R. M. Richard, P. Sadayappan, G. C. Schatz, W. A. Shelton, D. W. Silverstein,
   D. M. A. Smith, T. A. Soares, D. Song, M. Swart, H. L. Taylor, G. S. Thomas,
            V. Tipparaju, D. G. Truhlar, K. Tsemekhman, T. Van Voorhis,
     Á. Vázquez-Mayagoitia, P. Verma, O. Villa, A. Vishnu, K. D. Vogiatzis,
        D. Wang, J. H. Weare, M. J. Williamson, T. L. Windus, K. Woliński,
        A. T. Wong, Q. Wu, C. Yang, Q. Yu, M. Zacharias, Z. Zhang, Y. Zhao,
                                and R. J. Harrison
                        "NWChem: Past, present, and future
                         J. Chem. Phys. 152, 184102 (2020)
                               doi:10.1063/5.0004997

                                      AUTHORS
                                      -------
     E. Apra, E. J. Bylaska, N. Govind, K. Kowalski, M. Valiev, W. A. de Jong,
      T. P. Straatsma, H. J. J. van Dam, D. Wang, T. L. Windus, N. P. Bauman,
       A. Panyala, J. Hammond, J. Autschbach, K. Bhaskaran-Nair, J. Brabec,
    K. Lopata, S. A. Fischer, S. Krishnamoorthy, M. Jacquelin, W. Ma, M. Klemm,
       O. Villa, Y. Chen, V. Anisimov, F. Aquino, S. Hirata, M. T. Hackler,
           Eric Hermes, L. Jensen, J. E. Moore, J. C. Becca, V. Konjkov,
            D. Mejia-Rodriguez, T. Risthaus, M. Malagoli, A. Marenich,
   A. Otero-de-la-Roza, J. Mullin, P. Nichols, R. Peverati, J. Pittner, Y. Zhao,
        P.-D. Fan, A. Fonari, M. J. Williamson, R. J. Harrison, J. R. Rehr,
      M. Dupuis, D. Silverstein, D. M. A. Smith, J. Nieplocha, V. Tipparaju,
      M. Krishnan, B. E. Van Kuiken, A. Vazquez-Mayagoitia, M. Swart, Q. Wu,
   T. Van Voorhis, A. A. Auer, M. Nooijen, L. D. Crosby, E. Brown, G. Cisneros,
     G. I. Fann, H. Fruchtl, J. Garza, K. Hirao, R. A. Kendall, J. A. Nichols,
       K. Tsemekhman, K. Wolinski, J. Anchell, D. E. Bernholdt, P. Borowski,
       T. Clark, D. Clerc, H. Dachsel, M. J. O. Deegan, K. Dyall, D. Elwood,
      E. Glendening, M. Gutowski, A. C. Hess, J. Jaffe, B. G. Johnson, J. Ju,
        R. Kobayashi, R. Kutteh, Z. Lin, R. Littlefield, X. Long, B. Meng,
      T. Nakajima, S. Niu, L. Pollack, M. Rosing, K. Glaesemann, G. Sandrone,
      M. Stave, H. Taylor, G. Thomas, J. H. van Lenthe, A. T. Wong, Z. Zhang.

 Total times  cpu:        0.4s     wall:        0.8s
