 argument  1 = Cl2_hf_ccpvdz_geopt.nw
                                         
                                         


             Northwest Computational Chemistry Package (NWChem) 7.0.2
             --------------------------------------------------------


                    Environmental Molecular Sciences Laboratory
                       Pacific Northwest National Laboratory
                                Richland, WA 99352

                              Copyright (c) 1994-2020
                       Pacific Northwest National Laboratory
                            Battelle Memorial Institute

             NWChem is an open-source computational chemistry package
                        distributed under the terms of the
                      Educational Community License (ECL) 2.0
             A copy of the license is included with this distribution
                              in the LICENSE.TXT file

                                  ACKNOWLEDGMENT
                                  --------------

            This software and its documentation were developed at the
            EMSL at Pacific Northwest National Laboratory, a multiprogram
            national laboratory, operated for the U.S. Department of Energy
            by Battelle under Contract Number DE-AC05-76RL01830. Support
            for this work was provided by the Department of Energy Office
            of Biological and Environmental Research, Office of Basic
            Energy Sciences, and the Office of Advanced Scientific Computing.


           Job information
           ---------------

    hostname        = DESKTOP-M7D5GNM
    program         = /usr/bin/nwchem
    date            = Mon Oct 14 15:52:29 2024

    compiled        = Sat_Apr_09_17:12:10_2022
    source          = /build/nwchem-f1f4gx/nwchem-7.0.2/build-openmpi
    nwchem branch   = 7.0.2
    nwchem revision = N/A
    ga revision     = 5.8.1
    use scalapack   = T
    input           = Cl2_hf_ccpvdz_geopt.nw
    prefix          = Cl2_hf_ccpvdz_geopt.
    data base       = ./Cl2_hf_ccpvdz_geopt.db
    status          = startup
    nproc           =        4
    time left       =     -1s



           Memory information
           ------------------

    heap     =   13107198 doubles =    100.0 Mbytes
    stack    =   13107195 doubles =    100.0 Mbytes
    global   =   26214400 doubles =    200.0 Mbytes (distinct from heap & stack)
    total    =   52428793 doubles =    400.0 Mbytes
    verify   = yes
    hardfail = no 


           Directory information
           ---------------------

  0 permanent = .
  0 scratch   = .




                                NWChem Input Module
                                -------------------


                     Cl2 cc-pvdz HF-SCF geometry optimization
                     ----------------------------------------

 Scaling coordinates for geometry "geometry" by  1.889725989
 (inverse scale =  0.529177249)

 ORDER OF PRIMARY AXIS IS BEING SET TO 4
 D4H symmetry detected

          ------
          auto-z
          ------
  no constraints, skipping    0.0000000000000000     
  no constraints, skipping    0.0000000000000000     


                             Geometry "geometry" -> ""
                             -------------------------

 Output coordinates in angstroms (scale by  1.889725989 to convert to a.u.)

  No.       Tag          Charge          X              Y              Z
 ---- ---------------- ---------- -------------- -------------- --------------
    1 cl                  17.0000     0.00000000     0.00000000    -0.75000000
    2 cl                  17.0000     0.00000000     0.00000000     0.75000000

      Atomic Mass 
      ----------- 

      cl                34.968850


 Effective nuclear repulsion energy (a.u.)     101.9548166406

            Nuclear Dipole moment (a.u.) 
            ----------------------------
        X                 Y               Z
 ---------------- ---------------- ----------------
     0.0000000000     0.0000000000     0.0000000000

      Symmetry information
      --------------------

 Group name             D4h       
 Group number             28
 Group order              16
 No. of unique centers     1

      Symmetry unique atoms

     1



                                Z-matrix (autoz)
                                -------- 

 Units are Angstrom for bonds and degrees for angles

      Type          Name      I     J     K     L     M      Value
      ----------- --------  ----- ----- ----- ----- ----- ----------
    1 Stretch                  1     2                       1.50000


            XYZ format geometry
            -------------------
     2
 geometry
 cl                    0.00000000     0.00000000    -0.75000000
 cl                    0.00000000     0.00000000     0.75000000

 ==============================================================================
                                internuclear distances
 ------------------------------------------------------------------------------
       center one      |      center two      | atomic units |  angstroms
 ------------------------------------------------------------------------------
    2 cl               |   1 cl               |     2.83459  |     1.50000
 ------------------------------------------------------------------------------
                         number of included internuclear distances:          1
 ==============================================================================



                      Basis "ao basis" -> "" (cartesian)
                      -----
  cl (Chlorine)
  -------------
            Exponent  Coefficients 
       -------------- ---------------------------------------------------------
  1 S  1.27900000E+05  0.000241
  1 S  1.91700000E+04  0.001871
  1 S  4.36300000E+03  0.009708
  1 S  1.23600000E+03  0.039315
  1 S  4.03600000E+02  0.125932
  1 S  1.45700000E+02  0.299341
  1 S  5.68100000E+01  0.421886
  1 S  2.32300000E+01  0.237201
  1 S  6.64400000E+00  0.019153
  1 S  2.57500000E+00 -0.003348
  1 S  5.37100000E-01  0.000930

  2 S  1.27900000E+05 -0.000068
  2 S  1.91700000E+04 -0.000522
  2 S  4.36300000E+03 -0.002765
  2 S  1.23600000E+03 -0.011154
  2 S  4.03600000E+02 -0.038592
  2 S  1.45700000E+02 -0.099485
  2 S  5.68100000E+01 -0.201392
  2 S  2.32300000E+01 -0.130313
  2 S  6.64400000E+00  0.509443
  2 S  2.57500000E+00  0.610725
  2 S  5.37100000E-01  0.042155

  3 S  1.27900000E+05  0.000020
  3 S  1.91700000E+04  0.000158
  3 S  4.36300000E+03  0.000834
  3 S  1.23600000E+03  0.003399
  3 S  4.03600000E+02  0.011674
  3 S  1.45700000E+02  0.030962
  3 S  5.68100000E+01  0.062953
  3 S  2.32300000E+01  0.046026
  3 S  6.64400000E+00 -0.219312
  3 S  2.57500000E+00 -0.408773
  3 S  5.37100000E-01  0.638465

  4 S  1.93800000E-01  1.000000

  5 P  4.17600000E+02  0.005260
  5 P  9.83300000E+01  0.039833
  5 P  3.10400000E+01  0.164655
  5 P  1.11900000E+01  0.387322
  5 P  4.24900000E+00  0.457072
  5 P  1.62400000E+00  0.151636
  5 P  5.32200000E-01  0.001816

  6 P  4.17600000E+02 -0.001436
  6 P  9.83300000E+01 -0.010780
  6 P  3.10400000E+01 -0.047008
  6 P  1.11900000E+01 -0.111030
  6 P  4.24900000E+00 -0.153275
  6 P  1.62400000E+00  0.089461
  6 P  5.32200000E-01  0.579444

  7 P  1.62000000E-01  1.000000

  8 D  6.00000000E-01  1.000000



 Summary of "ao basis" -> "" (cartesian)
 ------------------------------------------------------------------------------
       Tag                 Description            Shells   Functions and Types
 ---------------- ------------------------------  ------  ---------------------
 cl                         cc-pvdz                  8       19   4s3p1d




                           NWChem Geometry Optimization
                           ----------------------------




                     Cl2 cc-pvdz HF-SCF geometry optimization


  no constraints, skipping    0.0000000000000000     
 maximum gradient threshold         (gmax) =   0.000450
 rms gradient threshold             (grms) =   0.000300
 maximum cartesian step threshold   (xmax) =   0.001800
 rms cartesian step threshold       (xrms) =   0.001200
 fixed trust radius                (trust) =   0.300000
 maximum step size to saddle      (sadstp) =   0.100000
 energy precision                  (eprec) =   1.0D-07
 maximum number of steps          (nptopt) =   20
 initial hessian option           (inhess) =    0
 line search option               (linopt) =    1
 hessian update option            (modupd) =    1
 saddle point option              (modsad) =    0
 initial eigen-mode to follow     (moddir) =    0
 initial variable to follow       (vardir) =    0
 follow first negative mode     (firstneg) =    T
 apply conjugacy                    (opcg) =    F
 source of zmatrix                         =   autoz   


          -------------------
          Energy Minimization
          -------------------


 Names of Z-matrix variables 
    1         

 Variables with the same non-blank name are constrained to be equal


 Using diagonal initial Hessian 
 Scaling for Hessian diagonals: bonds = 1.00  angles = 0.25  torsions = 0.10

          --------
          Step   0
          --------


                         Geometry "geometry" -> "geometry"
                         ---------------------------------

 Output coordinates in angstroms (scale by  1.889725989 to convert to a.u.)

  No.       Tag          Charge          X              Y              Z
 ---- ---------------- ---------- -------------- -------------- --------------
    1 cl                  17.0000     0.00000000     0.00000000    -0.75000000
    2 cl                  17.0000     0.00000000     0.00000000     0.75000000

      Atomic Mass 
      ----------- 

      cl                34.968850


 Effective nuclear repulsion energy (a.u.)     101.9548166406

            Nuclear Dipole moment (a.u.) 
            ----------------------------
        X                 Y               Z
 ---------------- ---------------- ----------------
     0.0000000000     0.0000000000     0.0000000000

      Symmetry information
      --------------------

 Group name             D4h       
 Group number             28
 Group order              16
 No. of unique centers     1

      Symmetry unique atoms

     1

                                 NWChem SCF Module
                                 -----------------


                     Cl2 cc-pvdz HF-SCF geometry optimization



  ao basis        = "ao basis"
  functions       =    38
  atoms           =     2
  closed shells   =    17
  open shells     =     0
  charge          =   0.00
  wavefunction    = RHF 
  input vectors   = atomic
  output vectors  = ./Cl2_hf_ccpvdz_geopt.movecs
  use symmetry    = T
  symmetry adapt  = T


 Summary of "ao basis" -> "ao basis" (cartesian)
 ------------------------------------------------------------------------------
       Tag                 Description            Shells   Functions and Types
 ---------------- ------------------------------  ------  ---------------------
 cl                         cc-pvdz                  8       19   4s3p1d


      Symmetry analysis of basis
      --------------------------

        a1g         9
        a1u         0
        a2g         0
        a2u         9
        b1g         1
        b1u         1
        b2g         1
        b2u         1
        eg          8
        eu          8


 Forming initial guess at       0.1s


      Superposition of Atomic Density Guess
      -------------------------------------

 Sum of atomic energies:        -918.95009295

      Non-variational initial energy
      ------------------------------

 Total energy =    -920.450314
 1-e energy   =   -1472.613007
 2-e energy   =     450.207876
 HOMO         =      -0.255424
 LUMO         =       0.173068


      Symmetry analysis of molecular orbitals - initial
      -------------------------------------------------


 !! scf_movecs_sym_adapt:    4 vectors were symmetry contaminated

  Symmetry fudging

 !! scf_movecs_sym_adapt:    4 vectors were symmetry contaminated

  Numbering of irreducible representations: 

     1 a1g         2 a1u         3 a2g         4 a2u         5 b1g     
     6 b1u         7 b2g         8 b2u         9 eg         10 eu      

  Orbital symmetries:

     1 a2u         2 a1g         3 a1g         4 a2u         5 a1g     
     6 a2u         7 eu          8 eu          9 eg         10 eg      
    11 a1g        12 a2u        13 eu         14 eu         15 a1g     
    16 eg         17 eg         18 a2u        19 a1g        20 eu      
    21 eu         22 a1g        23 a2u        24 eg         25 eg      
    26 eu         27 eu      


 Starting SCF solution at       0.5s



 ----------------------------------------------
         Quadratically convergent ROHF

 Convergence threshold     :          1.000E-04
 Maximum no. of iterations :           30
 Final Fock-matrix accuracy:          1.000E-07
 ----------------------------------------------


 #quartets = 6.345D+03 #integrals = 5.597D+04 #direct =  0.0% #cached =100.0%


 Integral file          = ./Cl2_hf_ccpvdz_geopt.aoints.0
 Record size in doubles =  65536        No. of integs per rec  =  43688
 Max. records in memory =      2        Max. records in file   = 463242
 No. of bits per label  =      8        No. of bits per value  =     64


File balance: exchanges=     0  moved=     0  time=   0.0


              iter       energy          gnorm     gmax       time
             ----- ------------------- --------- --------- --------
                 1     -918.6678374578  6.56D-01  3.24D-01      0.8
                 2     -918.6969853945  1.48D-01  4.73D-02      0.8
                 3     -918.6989464398  7.26D-03  2.58D-03      0.9
                 4     -918.6989514229  8.51D-06  2.83D-06      0.9


       Final RHF  results 
       ------------------ 

         Total SCF energy =   -918.698951422882
      One-electron energy =  -1472.249441417473
      Two-electron energy =    451.595673353983
 Nuclear repulsion energy =    101.954816640609

        Time for solution =      0.5s



       Symmetry analysis of molecular orbitals - final
       -----------------------------------------------

  Numbering of irreducible representations: 

     1 a1g         2 a1u         3 a2g         4 a2u         5 b1g     
     6 b1u         7 b2g         8 b2u         9 eg         10 eu      

  Orbital symmetries:

     1 a1g         2 a2u         3 a1g         4 a2u         5 a1g     
     6 a2u         7 eu          8 eu          9 eg         10 eg      
    11 a1g        12 a2u        13 eu         14 eu         15 a1g     
    16 eg         17 eg         18 a2u        19 a1g        20 eu      
    21 eu         22 a1g        23 a2u        24 eg         25 eg      
    26 eu         27 eu      

             Final eigenvalues
             -----------------

              1      
    1 -104.8588
    2 -104.8588
    3  -10.6062
    4  -10.6043
    5   -8.0804
    6   -8.0750
    7   -8.0664
    8   -8.0664
    9   -8.0660
   10   -8.0660
   11   -1.4649
   12   -0.9424
   13   -0.6853
   14   -0.6853
   15   -0.6666
   16   -0.3682
   17   -0.3682
   18    0.2526
   19    0.4306
   20    0.5761
   21    0.5761
   22    0.6830
   23    0.7117
   24    0.7856
   25    0.7856
   26    0.7973
   27    0.7973

                       ROHF Final Molecular Orbital Analysis
                       -------------------------------------

 Vector    8  Occ=2.000000D+00  E=-8.066447D+00  Symmetry=eu
              MO Center=  4.0D-17, -1.2D-16, -2.6D-17, r^2= 6.2D-01
   Bfn.  Coefficient  Atom+Function         Bfn.  Coefficient  Atom+Function  
  ----- ------------  ---------------      ----- ------------  ---------------
     6      0.669001  1 Cl py                25      0.669001  2 Cl py         
     5     -0.228535  1 Cl px                24     -0.228535  2 Cl px         

 Vector    9  Occ=2.000000D+00  E=-8.065959D+00  Symmetry=eg
              MO Center=  1.2D-20, -3.5D-19,  3.2D-17, r^2= 6.2D-01
   Bfn.  Coefficient  Atom+Function         Bfn.  Coefficient  Atom+Function  
  ----- ------------  ---------------      ----- ------------  ---------------
     5      0.706979  1 Cl px                24     -0.706979  2 Cl px         

 Vector   10  Occ=2.000000D+00  E=-8.065959D+00  Symmetry=eg
              MO Center= -9.7D-18,  8.2D-18, -3.8D-16, r^2= 6.2D-01
   Bfn.  Coefficient  Atom+Function         Bfn.  Coefficient  Atom+Function  
  ----- ------------  ---------------      ----- ------------  ---------------
     6      0.706979  1 Cl py                25     -0.706979  2 Cl py         

 Vector   11  Occ=2.000000D+00  E=-1.464942D+00  Symmetry=a1g
              MO Center= -4.7D-20, -1.6D-20, -1.2D-16, r^2= 6.9D-01
   Bfn.  Coefficient  Atom+Function         Bfn.  Coefficient  Atom+Function  
  ----- ------------  ---------------      ----- ------------  ---------------
     3      0.350905  1 Cl s                 22      0.350905  2 Cl s          
     4      0.203611  1 Cl s                 23      0.203611  2 Cl s          
    10      0.191351  1 Cl pz                29     -0.191351  2 Cl pz         

 Vector   12  Occ=2.000000D+00  E=-9.424211D-01  Symmetry=a2u
              MO Center= -6.0D-20, -1.1D-17,  3.4D-16, r^2= 1.8D+00
   Bfn.  Coefficient  Atom+Function         Bfn.  Coefficient  Atom+Function  
  ----- ------------  ---------------      ----- ------------  ---------------
     4      0.472216  1 Cl s                 23     -0.472216  2 Cl s          
     3      0.373420  1 Cl s                 22     -0.373420  2 Cl s          

 Vector   13  Occ=2.000000D+00  E=-6.852944D-01  Symmetry=eu
              MO Center= -1.9D-19,  5.4D-19,  3.1D-17, r^2= 1.3D+00
   Bfn.  Coefficient  Atom+Function         Bfn.  Coefficient  Atom+Function  
  ----- ------------  ---------------      ----- ------------  ---------------
     9      0.411178  1 Cl py                28      0.411178  2 Cl py         
    12      0.224148  1 Cl py                31      0.224148  2 Cl py         

 Vector   14  Occ=2.000000D+00  E=-6.852944D-01  Symmetry=eu
              MO Center= -5.5D-15, -2.2D-15,  2.0D-16, r^2= 1.3D+00
   Bfn.  Coefficient  Atom+Function         Bfn.  Coefficient  Atom+Function  
  ----- ------------  ---------------      ----- ------------  ---------------
     8      0.411178  1 Cl px                27      0.411178  2 Cl px         
    11      0.224148  1 Cl px                30      0.224148  2 Cl px         

 Vector   15  Occ=2.000000D+00  E=-6.665700D-01  Symmetry=a1g
              MO Center=  6.6D-15,  2.3D-15,  3.3D-16, r^2= 1.9D+00
   Bfn.  Coefficient  Atom+Function         Bfn.  Coefficient  Atom+Function  
  ----- ------------  ---------------      ----- ------------  ---------------
    10      0.441605  1 Cl pz                29     -0.441605  2 Cl pz         
     4     -0.353379  1 Cl s                 23     -0.353379  2 Cl s          
    13      0.193084  1 Cl pz                32     -0.193084  2 Cl pz         

 Vector   16  Occ=2.000000D+00  E=-3.681621D-01  Symmetry=eg
              MO Center=  6.1D-17, -1.1D-16, -1.4D-16, r^2= 2.0D+00
   Bfn.  Coefficient  Atom+Function         Bfn.  Coefficient  Atom+Function  
  ----- ------------  ---------------      ----- ------------  ---------------
    12      0.483339  1 Cl py                31     -0.483339  2 Cl py         
     9      0.469546  1 Cl py                28     -0.469546  2 Cl py         

 Vector   17  Occ=2.000000D+00  E=-3.681621D-01  Symmetry=eg
              MO Center= -9.3D-22,  1.3D-23,  1.4D-16, r^2= 2.0D+00
   Bfn.  Coefficient  Atom+Function         Bfn.  Coefficient  Atom+Function  
  ----- ------------  ---------------      ----- ------------  ---------------
    11      0.483339  1 Cl px                30     -0.483339  2 Cl px         
     8      0.469546  1 Cl px                27     -0.469546  2 Cl px         

 Vector   18  Occ=0.000000D+00  E= 2.526110D-01  Symmetry=a2u
              MO Center=  3.5D-16, -1.5D-16, -4.4D-16, r^2= 3.6D+00
   Bfn.  Coefficient  Atom+Function         Bfn.  Coefficient  Atom+Function  
  ----- ------------  ---------------      ----- ------------  ---------------
     4      1.725113  1 Cl s                 23     -1.725113  2 Cl s          
    13      1.458116  1 Cl pz                32      1.458116  2 Cl pz         
    10      0.253852  1 Cl pz                29      0.253852  2 Cl pz         

 Vector   19  Occ=0.000000D+00  E= 4.305961D-01  Symmetry=a1g
              MO Center= -1.1D-15, -3.9D-16,  6.2D-16, r^2= 2.2D+00
   Bfn.  Coefficient  Atom+Function         Bfn.  Coefficient  Atom+Function  
  ----- ------------  ---------------      ----- ------------  ---------------
    13      0.658314  1 Cl pz                32     -0.658314  2 Cl pz         
     4      0.549607  1 Cl s                 23      0.549607  2 Cl s          
     3     -0.476077  1 Cl s                 22     -0.476077  2 Cl s          
     2     -0.394313  1 Cl s                 21     -0.394313  2 Cl s          
    19     -0.381724  1 Cl dzz               38     -0.381724  2 Cl dzz        

 Vector   20  Occ=0.000000D+00  E= 5.760658D-01  Symmetry=eu
              MO Center=  4.8D-18, -3.9D-18,  5.6D-17, r^2= 2.3D+00
   Bfn.  Coefficient  Atom+Function         Bfn.  Coefficient  Atom+Function  
  ----- ------------  ---------------      ----- ------------  ---------------
    16      0.603410  1 Cl dxz               35     -0.603410  2 Cl dxz        
    18     -0.487689  1 Cl dyz               37      0.487689  2 Cl dyz        
    11     -0.423838  1 Cl px                30     -0.423838  2 Cl px         
    12      0.342555  1 Cl py                31      0.342555  2 Cl py         
     8      0.330369  1 Cl px                27      0.330369  2 Cl px         

 Vector   21  Occ=0.000000D+00  E= 5.760658D-01  Symmetry=eu
              MO Center=  2.4D-15,  2.9D-15,  9.0D-15, r^2= 2.3D+00
   Bfn.  Coefficient  Atom+Function         Bfn.  Coefficient  Atom+Function  
  ----- ------------  ---------------      ----- ------------  ---------------
    18      0.603410  1 Cl dyz               37     -0.603410  2 Cl dyz        
    16      0.487689  1 Cl dxz               35     -0.487689  2 Cl dxz        
    12     -0.423838  1 Cl py                31     -0.423838  2 Cl py         
    11     -0.342555  1 Cl px                30     -0.342555  2 Cl px         
     9      0.330369  1 Cl py                28      0.330369  2 Cl py         

 Vector   22  Occ=0.000000D+00  E= 6.829895D-01  Symmetry=a1g
              MO Center= -1.9D-15, -2.3D-15,  1.0D-16, r^2= 3.8D+00
   Bfn.  Coefficient  Atom+Function         Bfn.  Coefficient  Atom+Function  
  ----- ------------  ---------------      ----- ------------  ---------------
     4      1.365991  1 Cl s                 23      1.365991  2 Cl s          
     3     -0.829864  1 Cl s                 22     -0.829864  2 Cl s          
     2     -0.626118  1 Cl s                 21     -0.626118  2 Cl s          
    13     -0.552690  1 Cl pz                32      0.552690  2 Cl pz         
    10      0.449847  1 Cl pz                29     -0.449847  2 Cl pz         

 Vector   23  Occ=0.000000D+00  E= 7.117204D-01  Symmetry=a2u
              MO Center=  5.2D-19,  3.5D-17,  1.2D-15, r^2= 3.3D+00
   Bfn.  Coefficient  Atom+Function         Bfn.  Coefficient  Atom+Function  
  ----- ------------  ---------------      ----- ------------  ---------------
    13      1.046991  1 Cl pz                32      1.046991  2 Cl pz         
    10     -0.656166  1 Cl pz                29     -0.656166  2 Cl pz         
    19      0.488629  1 Cl dzz               38     -0.488629  2 Cl dzz        
     4      0.308091  1 Cl s                 23     -0.308091  2 Cl s          
     3      0.170283  1 Cl s                 22     -0.170283  2 Cl s          

 Vector   24  Occ=0.000000D+00  E= 7.856291D-01  Symmetry=eg
              MO Center=  1.5D-16,  2.6D-16, -1.9D-15, r^2= 3.2D+00
   Bfn.  Coefficient  Atom+Function         Bfn.  Coefficient  Atom+Function  
  ----- ------------  ---------------      ----- ------------  ---------------
    12      1.185882  1 Cl py                31     -1.185882  2 Cl py         
     9     -0.819750  1 Cl py                28      0.819750  2 Cl py         

 Vector   25  Occ=0.000000D+00  E= 7.856291D-01  Symmetry=eg
              MO Center= -3.4D-16,  1.1D-17, -9.6D-16, r^2= 3.2D+00
   Bfn.  Coefficient  Atom+Function         Bfn.  Coefficient  Atom+Function  
  ----- ------------  ---------------      ----- ------------  ---------------
    11      1.185882  1 Cl px                30     -1.185882  2 Cl px         
     8     -0.819750  1 Cl px                27      0.819750  2 Cl px         

 Vector   26  Occ=0.000000D+00  E= 7.972811D-01  Symmetry=eu
              MO Center= -2.5D-17, -1.1D-17,  3.2D-16, r^2= 2.0D+00
   Bfn.  Coefficient  Atom+Function         Bfn.  Coefficient  Atom+Function  
  ----- ------------  ---------------      ----- ------------  ---------------
    18     -0.628042  1 Cl dyz               37      0.628042  2 Cl dyz        
     9      0.578050  1 Cl py                28      0.578050  2 Cl py         
    12     -0.421816  1 Cl py                31     -0.421816  2 Cl py         
    16     -0.367315  1 Cl dxz               35      0.367315  2 Cl dxz        
     8      0.338077  1 Cl px                27      0.338077  2 Cl px         

 Vector   27  Occ=0.000000D+00  E= 7.972811D-01  Symmetry=eu
              MO Center= -1.4D-15,  2.1D-15, -7.4D-15, r^2= 2.0D+00
   Bfn.  Coefficient  Atom+Function         Bfn.  Coefficient  Atom+Function  
  ----- ------------  ---------------      ----- ------------  ---------------
    16     -0.628042  1 Cl dxz               35      0.628042  2 Cl dxz        
     8      0.578050  1 Cl px                27      0.578050  2 Cl px         
    11     -0.421816  1 Cl px                30     -0.421816  2 Cl px         
    18      0.367315  1 Cl dyz               37     -0.367315  2 Cl dyz        
     9     -0.338077  1 Cl py                28     -0.338077  2 Cl py         


 center of mass
 --------------
 x =   0.00000000 y =   0.00000000 z =   0.00000000

 moments of inertia (a.u.)
 ------------------
         140.485513796659           0.000000000000           0.000000000000
           0.000000000000         140.485513796659           0.000000000000
           0.000000000000           0.000000000000           0.000000000000

  Mulliken analysis of the total density
  --------------------------------------

    Atom       Charge   Shell Charges
 -----------   ------   -------------------------------------------------------
    1 Cl  17    17.00   2.00  2.01  0.93  0.95  6.00  3.21  1.73  0.18
    2 Cl  17    17.00   2.00  2.01  0.93  0.95  6.00  3.21  1.73  0.18

       Multipole analysis of the density wrt the origin
       ------------------------------------------------

     L   x y z        total         open         nuclear
     -   - - -        -----         ----         -------
     0   0 0 0     -0.000000      0.000000     34.000000

     1   1 0 0     -0.000000      0.000000      0.000000
     1   0 1 0     -0.000000      0.000000      0.000000
     1   0 0 1     -0.000000      0.000000      0.000000

     2   2 0 0    -18.106357      0.000000      0.000000
     2   1 1 0     -0.000000      0.000000      0.000000
     2   1 0 1      0.000000      0.000000      0.000000
     2   0 2 0    -18.106357      0.000000      0.000000
     2   0 1 1      0.000000      0.000000      0.000000
     2   0 0 2    -17.917292      0.000000     68.296605


 Parallel integral file used       4 records with       0 large values

                              NWChem Gradients Module
                              -----------------------


                     Cl2 cc-pvdz HF-SCF geometry optimization


  wavefunction    =   RHF     

  Using symmetry


                         RHF ENERGY GRADIENTS

    atom               coordinates                        gradient
                 x          y          z           x          y          z
   1 cl      0.000000   0.000000  -1.417294    0.000000   0.000000   0.838831
   2 cl      0.000000   0.000000   1.417294    0.000000   0.000000  -0.838831

                 ----------------------------------------
                 |  Time  |  1-e(secs)   |  2-e(secs)   |
                 ----------------------------------------
                 |  CPU   |       0.01   |       0.70   |
                 ----------------------------------------
                 |  WALL  |       0.01   |       0.71   |
                 ----------------------------------------
  no constraints, skipping    0.0000000000000000     

@ Step       Energy      Delta E   Gmax     Grms     Xrms     Xmax   Walltime
@ ---- ---------------- -------- -------- -------- -------- -------- --------
@    0    -918.69895142  0.0D+00  0.83883  0.83883  0.00000  0.00000      1.8
                                                                    



                                Z-matrix (autoz)
                                -------- 

 Units are Angstrom for bonds and degrees for angles

      Type          Name      I     J     K     L     M      Value     Gradient
      ----------- --------  ----- ----- ----- ----- ----- ---------- ----------
    1 Stretch                  1     2                       1.50000   -0.83883

 Restricting large step in mode    1 eval= 9.2D-01 step= 9.2D-01 new= 3.0D-01
  no constraints, skipping    0.0000000000000000     
  no constraints, skipping    0.0000000000000000     
  no constraints, skipping    0.0000000000000000     
                                 NWChem SCF Module
                                 -----------------


                     Cl2 cc-pvdz HF-SCF geometry optimization



  ao basis        = "ao basis"
  functions       =    38
  atoms           =     2
  closed shells   =    17
  open shells     =     0
  charge          =   0.00
  wavefunction    = RHF 
  input vectors   = ./Cl2_hf_ccpvdz_geopt.movecs
  output vectors  = ./Cl2_hf_ccpvdz_geopt.movecs
  use symmetry    = T
  symmetry adapt  = T


 Summary of "ao basis" -> "ao basis" (cartesian)
 ------------------------------------------------------------------------------
       Tag                 Description            Shells   Functions and Types
 ---------------- ------------------------------  ------  ---------------------
 cl                         cc-pvdz                  8       19   4s3p1d


      Symmetry analysis of basis
      --------------------------

        a1g         9
        a1u         0
        a2g         0
        a2u         9
        b1g         1
        b1u         1
        b2g         1
        b2u         1
        eg          8
        eu          8


 Forming initial guess at       1.9s


 Loading old vectors from job with title :

Cl2 cc-pvdz HF-SCF geometry optimization


      Symmetry analysis of molecular orbitals - initial
      -------------------------------------------------

  Numbering of irreducible representations: 

     1 a1g         2 a1u         3 a2g         4 a2u         5 b1g     
     6 b1u         7 b2g         8 b2u         9 eg         10 eu      

  Orbital symmetries:

     1 a1g         2 a2u         3 a1g         4 a2u         5 a1g     
     6 a2u         7 eu          8 eu          9 eg         10 eg      
    11 a1g        12 a2u        13 eu         14 eu         15 a1g     
    16 eg         17 eg         18 a2u        19 a1g        20 eu      
    21 eu         22 a1g        23 a2u        24 eg         25 eg      
    26 eu         27 eu      


 Starting SCF solution at       1.9s



 ----------------------------------------------
         Quadratically convergent ROHF

 Convergence threshold     :          1.000E-04
 Maximum no. of iterations :           30
 Final Fock-matrix accuracy:          1.000E-07
 ----------------------------------------------


 #quartets = 6.341D+03 #integrals = 5.588D+04 #direct =  0.0% #cached =100.0%


 Integral file          = ./Cl2_hf_ccpvdz_geopt.aoints.0
 Record size in doubles =  65536        No. of integs per rec  =  43688
 Max. records in memory =      2        Max. records in file   = 463242
 No. of bits per label  =      8        No. of bits per value  =     64


File balance: exchanges=     0  moved=     0  time=   0.0


              iter       energy          gnorm     gmax       time
             ----- ------------------- --------- --------- --------
                 1     -918.8574975896  3.84D-01  1.62D-01      2.0
                 2     -918.8711018070  9.83D-02  4.39D-02      2.1
                 3     -918.8720427984  2.28D-03  1.19D-03      2.1
                 4     -918.8720433245  7.93D-06  4.34D-06      2.1


       Final RHF  results 
       ------------------ 

         Total SCF energy =   -918.872043324546
      One-electron energy =  -1453.260914900720
      Two-electron energy =    442.191776014575
 Nuclear repulsion energy =     92.197095561599

        Time for solution =      0.4s



       Symmetry analysis of molecular orbitals - final
       -----------------------------------------------

  Numbering of irreducible representations: 

     1 a1g         2 a1u         3 a2g         4 a2u         5 b1g     
     6 b1u         7 b2g         8 b2u         9 eg         10 eu      

  Orbital symmetries:

     1 a1g         2 a2u         3 a1g         4 a2u         5 a1g     
     6 a2u         7 eu          8 eu          9 eg         10 eg      
    11 a1g        12 a2u        13 a1g        14 eu         15 eu      
    16 eg         17 eg         18 a2u        19 a1g        20 eu      
    21 eu         22 a1g        23 a2u        24 eu         25 eu      
    26 eg         27 eg      

             Final eigenvalues
             -----------------

              1      
    1 -104.8725
    2 -104.8725
    3  -10.6068
    4  -10.6061
    5   -8.0779
    6   -8.0761
    7   -8.0694
    8   -8.0694
    9   -8.0692
   10   -8.0692
   11   -1.3654
   12   -0.9692
   13   -0.6495
   14   -0.6341
   15   -0.6341
   16   -0.3986
   17   -0.3986
   18    0.1832
   19    0.4715
   20    0.6428
   21    0.6428
   22    0.6772
   23    0.6890
   24    0.7609
   25    0.7609
   26    0.7737
   27    0.7737

                       ROHF Final Molecular Orbital Analysis
                       -------------------------------------

 Vector    8  Occ=2.000000D+00  E=-8.069371D+00  Symmetry=eu
              MO Center= -8.7D-20,  3.0D-20,  8.7D-17, r^2= 7.4D-01
   Bfn.  Coefficient  Atom+Function         Bfn.  Coefficient  Atom+Function  
  ----- ------------  ---------------      ----- ------------  ---------------
     6      0.668992  1 Cl py                25      0.668992  2 Cl py         
     5     -0.228532  1 Cl px                24     -0.228532  2 Cl px         

 Vector    9  Occ=2.000000D+00  E=-8.069226D+00  Symmetry=eg
              MO Center=  3.6D-21, -1.5D-21, -5.1D-18, r^2= 7.4D-01
   Bfn.  Coefficient  Atom+Function         Bfn.  Coefficient  Atom+Function  
  ----- ------------  ---------------      ----- ------------  ---------------
     5      0.706926  1 Cl px                24     -0.706926  2 Cl px         

 Vector   10  Occ=2.000000D+00  E=-8.069226D+00  Symmetry=eg
              MO Center= -9.8D-18,  1.8D-17, -3.3D-16, r^2= 7.4D-01
   Bfn.  Coefficient  Atom+Function         Bfn.  Coefficient  Atom+Function  
  ----- ------------  ---------------      ----- ------------  ---------------
     6      0.706926  1 Cl py                25     -0.706926  2 Cl py         

 Vector   11  Occ=2.000000D+00  E=-1.365364D+00  Symmetry=a1g
              MO Center= -6.7D-20, -2.3D-20, -1.0D-16, r^2= 8.4D-01
   Bfn.  Coefficient  Atom+Function         Bfn.  Coefficient  Atom+Function  
  ----- ------------  ---------------      ----- ------------  ---------------
     3      0.348347  1 Cl s                 22      0.348347  2 Cl s          
     4      0.241253  1 Cl s                 23      0.241253  2 Cl s          
    10      0.161485  1 Cl pz                29     -0.161485  2 Cl pz         

 Vector   12  Occ=2.000000D+00  E=-9.692318D-01  Symmetry=a2u
              MO Center= -1.8D-19, -2.2D-17,  1.3D-16, r^2= 1.9D+00
   Bfn.  Coefficient  Atom+Function         Bfn.  Coefficient  Atom+Function  
  ----- ------------  ---------------      ----- ------------  ---------------
     4      0.458761  1 Cl s                 23     -0.458761  2 Cl s          
     3      0.381412  1 Cl s                 22     -0.381412  2 Cl s          

 Vector   13  Occ=2.000000D+00  E=-6.494748D-01  Symmetry=a1g
              MO Center=  9.5D-18,  1.2D-17,  1.5D-16, r^2= 2.0D+00
   Bfn.  Coefficient  Atom+Function         Bfn.  Coefficient  Atom+Function  
  ----- ------------  ---------------      ----- ------------  ---------------
    10      0.440856  1 Cl pz                29     -0.440856  2 Cl pz         
     4     -0.315869  1 Cl s                 23     -0.315869  2 Cl s          
    13      0.210026  1 Cl pz                32     -0.210026  2 Cl pz         

 Vector   14  Occ=2.000000D+00  E=-6.341148D-01  Symmetry=eu
              MO Center= -1.6D-19, -5.1D-20, -9.5D-17, r^2= 1.5D+00
   Bfn.  Coefficient  Atom+Function         Bfn.  Coefficient  Atom+Function  
  ----- ------------  ---------------      ----- ------------  ---------------
     8      0.408998  1 Cl px                27      0.408998  2 Cl px         
    11      0.254011  1 Cl px                30      0.254011  2 Cl px         

 Vector   15  Occ=2.000000D+00  E=-6.341148D-01  Symmetry=eu
              MO Center=  5.2D-20, -1.7D-19,  2.8D-17, r^2= 1.5D+00
   Bfn.  Coefficient  Atom+Function         Bfn.  Coefficient  Atom+Function  
  ----- ------------  ---------------      ----- ------------  ---------------
     9      0.408998  1 Cl py                28      0.408998  2 Cl py         
    12      0.254011  1 Cl py                31      0.254011  2 Cl py         

 Vector   16  Occ=2.000000D+00  E=-3.985929D-01  Symmetry=eg
              MO Center=  2.9D-34, -2.9D-35, -2.8D-16, r^2= 2.0D+00
   Bfn.  Coefficient  Atom+Function         Bfn.  Coefficient  Atom+Function  
  ----- ------------  ---------------      ----- ------------  ---------------
     9      0.468324  1 Cl py                28     -0.468324  2 Cl py         
    12      0.441736  1 Cl py                31     -0.441736  2 Cl py         

 Vector   17  Occ=2.000000D+00  E=-3.985929D-01  Symmetry=eg
              MO Center= -7.2D-19,  1.8D-18,  2.4D-16, r^2= 2.0D+00
   Bfn.  Coefficient  Atom+Function         Bfn.  Coefficient  Atom+Function  
  ----- ------------  ---------------      ----- ------------  ---------------
     8      0.468324  1 Cl px                27     -0.468324  2 Cl px         
    11      0.441736  1 Cl px                30     -0.441736  2 Cl px         

 Vector   18  Occ=0.000000D+00  E= 1.831717D-01  Symmetry=a2u
              MO Center=  6.2D-19, -1.1D-17,  1.7D-16, r^2= 3.2D+00
   Bfn.  Coefficient  Atom+Function         Bfn.  Coefficient  Atom+Function  
  ----- ------------  ---------------      ----- ------------  ---------------
    13      1.143858  1 Cl pz                32      1.143858  2 Cl pz         
     4      1.130150  1 Cl s                 23     -1.130150  2 Cl s          
    10      0.330647  1 Cl pz                29      0.330647  2 Cl pz         

 Vector   19  Occ=0.000000D+00  E= 4.715449D-01  Symmetry=a1g
              MO Center=  8.4D-20,  2.9D-20,  2.8D-17, r^2= 2.1D+00
   Bfn.  Coefficient  Atom+Function         Bfn.  Coefficient  Atom+Function  
  ----- ------------  ---------------      ----- ------------  ---------------
     4      0.600720  1 Cl s                 13      0.597778  1 Cl pz         
    23      0.600720  2 Cl s                 32     -0.597778  2 Cl pz         
     3     -0.461688  1 Cl s                 22     -0.461688  2 Cl s          
    19     -0.448641  1 Cl dzz               38     -0.448641  2 Cl dzz        
     2     -0.388465  1 Cl s                 21     -0.388465  2 Cl s          

 Vector   20  Occ=0.000000D+00  E= 6.428083D-01  Symmetry=eu
              MO Center= -5.4D-18,  1.7D-18, -9.7D-17, r^2= 2.3D+00
   Bfn.  Coefficient  Atom+Function         Bfn.  Coefficient  Atom+Function  
  ----- ------------  ---------------      ----- ------------  ---------------
    16      0.806208  1 Cl dxz               35     -0.806208  2 Cl dxz        
    11     -0.508512  1 Cl px                30     -0.508512  2 Cl px         
     8      0.428009  1 Cl px                27      0.428009  2 Cl px         
    18     -0.248681  1 Cl dyz               37      0.248681  2 Cl dyz        
    12      0.156855  1 Cl py                31      0.156855  2 Cl py         

 Vector   21  Occ=0.000000D+00  E= 6.428083D-01  Symmetry=eu
              MO Center=  1.3D-15,  2.9D-15,  1.1D-14, r^2= 2.3D+00
   Bfn.  Coefficient  Atom+Function         Bfn.  Coefficient  Atom+Function  
  ----- ------------  ---------------      ----- ------------  ---------------
    18      0.806208  1 Cl dyz               37     -0.806208  2 Cl dyz        
    12     -0.508512  1 Cl py                31     -0.508512  2 Cl py         
     9      0.428009  1 Cl py                28      0.428009  2 Cl py         
    16      0.248681  1 Cl dxz               35     -0.248681  2 Cl dxz        
    11     -0.156855  1 Cl px                30     -0.156855  2 Cl px         

 Vector   22  Occ=0.000000D+00  E= 6.771509D-01  Symmetry=a1g
              MO Center= -8.2D-16, -2.7D-15, -3.0D-16, r^2= 4.0D+00
   Bfn.  Coefficient  Atom+Function         Bfn.  Coefficient  Atom+Function  
  ----- ------------  ---------------      ----- ------------  ---------------
     4      1.380771  1 Cl s                 23      1.380771  2 Cl s          
     3     -0.848019  1 Cl s                 22     -0.848019  2 Cl s          
     2     -0.636144  1 Cl s                 21     -0.636144  2 Cl s          
    13     -0.526660  1 Cl pz                32      0.526660  2 Cl pz         
    10      0.424638  1 Cl pz                29     -0.424638  2 Cl pz         

 Vector   23  Occ=0.000000D+00  E= 6.890103D-01  Symmetry=a2u
              MO Center= -3.0D-19, -4.1D-19,  7.2D-16, r^2= 3.9D+00
   Bfn.  Coefficient  Atom+Function         Bfn.  Coefficient  Atom+Function  
  ----- ------------  ---------------      ----- ------------  ---------------
    13      1.124407  1 Cl pz                32      1.124407  2 Cl pz         
    10     -0.717761  1 Cl pz                29     -0.717761  2 Cl pz         
    19      0.365653  1 Cl dzz               38     -0.365653  2 Cl dzz        
     4      0.235680  1 Cl s                 23     -0.235680  2 Cl s          
     3      0.187094  1 Cl s                 22     -0.187094  2 Cl s          

 Vector   24  Occ=0.000000D+00  E= 7.608979D-01  Symmetry=eu
              MO Center=  1.3D-16, -2.5D-16,  5.6D-16, r^2= 2.2D+00
   Bfn.  Coefficient  Atom+Function         Bfn.  Coefficient  Atom+Function  
  ----- ------------  ---------------      ----- ------------  ---------------
    16     -0.641897  1 Cl dxz               35      0.641897  2 Cl dxz        
     8      0.607915  1 Cl px                27      0.607915  2 Cl px         
    11     -0.463479  1 Cl px                30     -0.463479  2 Cl px         
    18      0.283749  1 Cl dyz               37     -0.283749  2 Cl dyz        
     9     -0.268727  1 Cl py                28     -0.268727  2 Cl py         

 Vector   25  Occ=0.000000D+00  E= 7.608979D-01  Symmetry=eu
              MO Center=  3.9D-16,  1.3D-16,  1.8D-15, r^2= 2.2D+00
   Bfn.  Coefficient  Atom+Function         Bfn.  Coefficient  Atom+Function  
  ----- ------------  ---------------      ----- ------------  ---------------
    18     -0.641897  1 Cl dyz               37      0.641897  2 Cl dyz        
     9      0.607915  1 Cl py                28      0.607915  2 Cl py         
    12     -0.463479  1 Cl py                31     -0.463479  2 Cl py         
    16     -0.283749  1 Cl dxz               35      0.283749  2 Cl dxz        
     8      0.268727  1 Cl px                27      0.268727  2 Cl px         

 Vector   26  Occ=0.000000D+00  E= 7.736547D-01  Symmetry=eg
              MO Center= -3.7D-31,  4.0D-32, -1.3D-14, r^2= 3.3D+00
   Bfn.  Coefficient  Atom+Function         Bfn.  Coefficient  Atom+Function  
  ----- ------------  ---------------      ----- ------------  ---------------
    12      1.105291  1 Cl py                31     -1.105291  2 Cl py         
     9     -0.805512  1 Cl py                28      0.805512  2 Cl py         

 Vector   27  Occ=0.000000D+00  E= 7.736547D-01  Symmetry=eg
              MO Center= -6.1D-33, -5.7D-32, -4.4D-16, r^2= 3.3D+00
   Bfn.  Coefficient  Atom+Function         Bfn.  Coefficient  Atom+Function  
  ----- ------------  ---------------      ----- ------------  ---------------
    11      1.105291  1 Cl px                30     -1.105291  2 Cl px         
     8     -0.805512  1 Cl px                27      0.805512  2 Cl px         


 center of mass
 --------------
 x =   0.00000000 y =   0.00000000 z =   0.00000000

 moments of inertia (a.u.)
 ------------------
         171.795807132749           0.000000000000           0.000000000000
           0.000000000000         171.795807132749           0.000000000000
           0.000000000000           0.000000000000           0.000000000000

  Mulliken analysis of the total density
  --------------------------------------

    Atom       Charge   Shell Charges
 -----------   ------   -------------------------------------------------------
    1 Cl  17    17.00   2.00  2.01  0.94  0.95  6.00  3.13  1.84  0.14
    2 Cl  17    17.00   2.00  2.01  0.94  0.95  6.00  3.13  1.84  0.14

       Multipole analysis of the density wrt the origin
       ------------------------------------------------

     L   x y z        total         open         nuclear
     -   - - -        -----         ----         -------
     0   0 0 0     -0.000000      0.000000     34.000000

     1   1 0 0      0.000000      0.000000      0.000000
     1   0 1 0     -0.000000      0.000000      0.000000
     1   0 0 1      0.000000      0.000000      0.000000

     2   2 0 0    -18.436055      0.000000      0.000000
     2   1 1 0      0.000000      0.000000      0.000000
     2   1 0 1      0.000000      0.000000      0.000000
     2   0 2 0    -18.436055      0.000000      0.000000
     2   0 1 1     -0.000000      0.000000      0.000000
     2   0 0 2    -17.465127      0.000000     83.518009


 Parallel integral file used       4 records with       0 large values

 Line search: 
     step= 1.00 grad=-2.5D-01 hess= 7.9D-02 energy=   -918.872043 mode=downhill
 new step= 1.60                   predicted energy=   -918.900483
  no constraints, skipping    0.0000000000000000     
  no constraints, skipping    0.0000000000000000     
  no constraints, skipping    0.0000000000000000     

          --------
          Step   1
          --------


                         Geometry "geometry" -> "geometry"
                         ---------------------------------

 Output coordinates in angstroms (scale by  1.889725989 to convert to a.u.)

  No.       Tag          Charge          X              Y              Z
 ---- ---------------- ---------- -------------- -------------- --------------
    1 cl                  17.0000     0.00000000     0.00000000    -0.87713662
    2 cl                  17.0000     0.00000000     0.00000000     0.87713662

      Atomic Mass 
      ----------- 

      cl                34.968850


 Effective nuclear repulsion energy (a.u.)      87.1769697745

            Nuclear Dipole moment (a.u.) 
            ----------------------------
        X                 Y               Z
 ---------------- ---------------- ----------------
     0.0000000000     0.0000000000     0.0000000000

      Symmetry information
      --------------------

 Group name             D4h       
 Group number             28
 Group order              16
 No. of unique centers     1

      Symmetry unique atoms

     1

                                 NWChem SCF Module
                                 -----------------


                     Cl2 cc-pvdz HF-SCF geometry optimization



  ao basis        = "ao basis"
  functions       =    38
  atoms           =     2
  closed shells   =    17
  open shells     =     0
  charge          =   0.00
  wavefunction    = RHF 
  input vectors   = ./Cl2_hf_ccpvdz_geopt.movecs
  output vectors  = ./Cl2_hf_ccpvdz_geopt.movecs
  use symmetry    = T
  symmetry adapt  = T


 Summary of "ao basis" -> "ao basis" (cartesian)
 ------------------------------------------------------------------------------
       Tag                 Description            Shells   Functions and Types
 ---------------- ------------------------------  ------  ---------------------
 cl                         cc-pvdz                  8       19   4s3p1d


      Symmetry analysis of basis
      --------------------------

        a1g         9
        a1u         0
        a2g         0
        a2u         9
        b1g         1
        b1u         1
        b2g         1
        b2u         1
        eg          8
        eu          8


 Forming initial guess at       2.4s


 Loading old vectors from job with title :

Cl2 cc-pvdz HF-SCF geometry optimization


      Symmetry analysis of molecular orbitals - initial
      -------------------------------------------------

  Numbering of irreducible representations: 

     1 a1g         2 a1u         3 a2g         4 a2u         5 b1g     
     6 b1u         7 b2g         8 b2u         9 eg         10 eu      

  Orbital symmetries:

     1 a1g         2 a2u         3 a1g         4 a2u         5 a1g     
     6 a2u         7 eu          8 eu          9 eg         10 eg      
    11 a1g        12 a2u        13 a1g        14 eu         15 eu      
    16 eg         17 eg         18 a2u        19 a1g        20 eu      
    21 eu         22 a1g        23 a2u        24 eu         25 eu      
    26 eg         27 eg      


 Starting SCF solution at       2.4s



 ----------------------------------------------
         Quadratically convergent ROHF

 Convergence threshold     :          1.000E-04
 Maximum no. of iterations :           30
 Final Fock-matrix accuracy:          1.000E-07
 ----------------------------------------------


 #quartets = 6.337D+03 #integrals = 5.578D+04 #direct =  0.0% #cached =100.0%


 Integral file          = ./Cl2_hf_ccpvdz_geopt.aoints.0
 Record size in doubles =  65536        No. of integs per rec  =  43688
 Max. records in memory =      2        Max. records in file   = 463242
 No. of bits per label  =      8        No. of bits per value  =     64


File balance: exchanges=     0  moved=     0  time=   0.0


              iter       energy          gnorm     gmax       time
             ----- ------------------- --------- --------- --------
                 1     -918.9188510147  2.05D-01  8.93D-02      2.5
                 2     -918.9230136214  6.91D-03  3.41D-03      2.5
                 3     -918.9230175985  2.30D-05  1.19D-05      2.5


       Final RHF  results 
       ------------------ 

         Total SCF energy =   -918.923017598547
      One-electron energy =  -1443.365659554468
      Two-electron energy =    437.265672181435
 Nuclear repulsion energy =     87.176969774487

        Time for solution =      0.4s



       Symmetry analysis of molecular orbitals - final
       -----------------------------------------------

  Numbering of irreducible representations: 

     1 a1g         2 a1u         3 a2g         4 a2u         5 b1g     
     6 b1u         7 b2g         8 b2u         9 eg         10 eu      

  Orbital symmetries:

     1 a1g         2 a2u         3 a1g         4 a2u         5 a1g     
     6 a2u         7 eu          8 eu          9 eg         10 eg      
    11 a1g        12 a2u        13 a1g        14 eu         15 eu      
    16 eg         17 eg         18 a2u        19 a1g        20 a1g     
    21 a2u        22 eu         23 eu         24 eu         25 eu      
    26 eg         27 eg      

             Final eigenvalues
             -----------------

              1      
    1 -104.8807
    2 -104.8807
    3  -10.6098
    4  -10.6094
    5   -8.0800
    6   -8.0791
    7   -8.0730
    8   -8.0730
    9   -8.0729
   10   -8.0729
   11   -1.3153
   12   -0.9844
   13   -0.6362
   14   -0.6105
   15   -0.6105
   16   -0.4143
   17   -0.4143
   18    0.1399
   19    0.5007
   20    0.6735
   21    0.6809
   22    0.6820
   23    0.6820
   24    0.7431
   25    0.7431
   26    0.7679
   27    0.7679

                       ROHF Final Molecular Orbital Analysis
                       -------------------------------------

 Vector    8  Occ=2.000000D+00  E=-8.073004D+00  Symmetry=eu
              MO Center= -7.5D-20,  2.7D-20,  1.9D-17, r^2= 8.3D-01
   Bfn.  Coefficient  Atom+Function         Bfn.  Coefficient  Atom+Function  
  ----- ------------  ---------------      ----- ------------  ---------------
     6      0.668982  1 Cl py                25      0.668982  2 Cl py         
     5     -0.228529  1 Cl px                24     -0.228529  2 Cl px         

 Vector    9  Occ=2.000000D+00  E=-8.072935D+00  Symmetry=eg
              MO Center=  2.4D-26, -1.9D-28,  1.5D-16, r^2= 8.3D-01
   Bfn.  Coefficient  Atom+Function         Bfn.  Coefficient  Atom+Function  
  ----- ------------  ---------------      ----- ------------  ---------------
     5      0.706907  1 Cl px                24     -0.706907  2 Cl px         

 Vector   10  Occ=2.000000D+00  E=-8.072935D+00  Symmetry=eg
              MO Center= -9.8D-18,  2.3D-17, -8.2D-17, r^2= 8.3D-01
   Bfn.  Coefficient  Atom+Function         Bfn.  Coefficient  Atom+Function  
  ----- ------------  ---------------      ----- ------------  ---------------
     6      0.706907  1 Cl py                25     -0.706907  2 Cl py         

 Vector   11  Occ=2.000000D+00  E=-1.315264D+00  Symmetry=a1g
              MO Center= -6.7D-20, -2.3D-20,  8.3D-17, r^2= 9.6D-01
   Bfn.  Coefficient  Atom+Function         Bfn.  Coefficient  Atom+Function  
  ----- ------------  ---------------      ----- ------------  ---------------
     3      0.347768  1 Cl s                 22      0.347768  2 Cl s          
     4      0.264633  1 Cl s                 23      0.264633  2 Cl s          

 Vector   12  Occ=2.000000D+00  E=-9.843989D-01  Symmetry=a2u
              MO Center= -2.3D-19, -2.8D-17,  1.7D-17, r^2= 2.0D+00
   Bfn.  Coefficient  Atom+Function         Bfn.  Coefficient  Atom+Function  
  ----- ------------  ---------------      ----- ------------  ---------------
     4      0.450744  1 Cl s                 23     -0.450744  2 Cl s          
     3      0.384890  1 Cl s                 22     -0.384890  2 Cl s          

 Vector   13  Occ=2.000000D+00  E=-6.361803D-01  Symmetry=a1g
              MO Center=  4.9D-20,  1.7D-20, -2.6D-16, r^2= 2.1D+00
   Bfn.  Coefficient  Atom+Function         Bfn.  Coefficient  Atom+Function  
  ----- ------------  ---------------      ----- ------------  ---------------
    10      0.438622  1 Cl pz                29     -0.438622  2 Cl pz         
     4     -0.288896  1 Cl s                 23     -0.288896  2 Cl s          
    13      0.222462  1 Cl pz                32     -0.222462  2 Cl pz         

 Vector   14  Occ=2.000000D+00  E=-6.105239D-01  Symmetry=eu
              MO Center=  1.8D-18,  1.9D-18,  5.0D-17, r^2= 1.7D+00
   Bfn.  Coefficient  Atom+Function         Bfn.  Coefficient  Atom+Function  
  ----- ------------  ---------------      ----- ------------  ---------------
     8      0.403499  1 Cl px                27      0.403499  2 Cl px         
    11      0.265281  1 Cl px                30      0.265281  2 Cl px         

 Vector   15  Occ=2.000000D+00  E=-6.105239D-01  Symmetry=eu
              MO Center=  1.8D-17, -5.0D-18, -4.0D-17, r^2= 1.7D+00
   Bfn.  Coefficient  Atom+Function         Bfn.  Coefficient  Atom+Function  
  ----- ------------  ---------------      ----- ------------  ---------------
     9      0.403499  1 Cl py                28      0.403499  2 Cl py         
    12      0.265281  1 Cl py                31      0.265281  2 Cl py         

 Vector   16  Occ=2.000000D+00  E=-4.143175D-01  Symmetry=eg
              MO Center=  2.7D-19,  1.3D-19, -5.2D-18, r^2= 2.1D+00
   Bfn.  Coefficient  Atom+Function         Bfn.  Coefficient  Atom+Function  
  ----- ------------  ---------------      ----- ------------  ---------------
     9      0.467276  1 Cl py                28     -0.467276  2 Cl py         
    12      0.422370  1 Cl py                31     -0.422370  2 Cl py         

 Vector   17  Occ=2.000000D+00  E=-4.143175D-01  Symmetry=eg
              MO Center= -8.6D-24,  6.5D-26,  2.5D-17, r^2= 2.1D+00
   Bfn.  Coefficient  Atom+Function         Bfn.  Coefficient  Atom+Function  
  ----- ------------  ---------------      ----- ------------  ---------------
     8      0.467276  1 Cl px                27     -0.467276  2 Cl px         
    11      0.422370  1 Cl px                30     -0.422370  2 Cl px         

 Vector   18  Occ=0.000000D+00  E= 1.398763D-01  Symmetry=a2u
              MO Center= -1.1D-19, -1.3D-17, -2.6D-16, r^2= 3.0D+00
   Bfn.  Coefficient  Atom+Function         Bfn.  Coefficient  Atom+Function  
  ----- ------------  ---------------      ----- ------------  ---------------
    13      0.993878  1 Cl pz                32      0.993878  2 Cl pz         
     4      0.873250  1 Cl s                 23     -0.873250  2 Cl s          
    10      0.364783  1 Cl pz                29      0.364783  2 Cl pz         

 Vector   19  Occ=0.000000D+00  E= 5.006721D-01  Symmetry=a1g
              MO Center= -1.0D-19, -6.1D-19,  1.7D-16, r^2= 2.1D+00
   Bfn.  Coefficient  Atom+Function         Bfn.  Coefficient  Atom+Function  
  ----- ------------  ---------------      ----- ------------  ---------------
     4      0.634999  1 Cl s                 23      0.634999  2 Cl s          
    13      0.558901  1 Cl pz                32     -0.558901  2 Cl pz         
    19     -0.497901  1 Cl dzz               38     -0.497901  2 Cl dzz        
     3     -0.451432  1 Cl s                 22     -0.451432  2 Cl s          
     2     -0.381601  1 Cl s                 21     -0.381601  2 Cl s          

 Vector   20  Occ=0.000000D+00  E= 6.735344D-01  Symmetry=a1g
              MO Center= -3.7D-20, -1.6D-20, -7.2D-16, r^2= 4.2D+00
   Bfn.  Coefficient  Atom+Function         Bfn.  Coefficient  Atom+Function  
  ----- ------------  ---------------      ----- ------------  ---------------
     4      1.386043  1 Cl s                 23      1.386043  2 Cl s          
     3     -0.854033  1 Cl s                 22     -0.854033  2 Cl s          
     2     -0.638965  1 Cl s                 21     -0.638965  2 Cl s          
    13     -0.514680  1 Cl pz                32      0.514680  2 Cl pz         
    10      0.412180  1 Cl pz                29     -0.412180  2 Cl pz         

 Vector   21  Occ=0.000000D+00  E= 6.809103D-01  Symmetry=a2u
              MO Center=  2.8D-21,  3.7D-19,  2.3D-16, r^2= 4.2D+00
   Bfn.  Coefficient  Atom+Function         Bfn.  Coefficient  Atom+Function  
  ----- ------------  ---------------      ----- ------------  ---------------
    13      1.131267  1 Cl pz                32      1.131267  2 Cl pz         
    10     -0.736112  1 Cl pz                29     -0.736112  2 Cl pz         
    19      0.301666  1 Cl dzz               38     -0.301666  2 Cl dzz        
     3      0.213316  1 Cl s                 22     -0.213316  2 Cl s          

 Vector   22  Occ=0.000000D+00  E= 6.819726D-01  Symmetry=eu
              MO Center= -1.9D-22, -1.0D-23,  6.4D-17, r^2= 2.3D+00
   Bfn.  Coefficient  Atom+Function         Bfn.  Coefficient  Atom+Function  
  ----- ------------  ---------------      ----- ------------  ---------------
    16      0.843273  1 Cl dxz               35     -0.843273  2 Cl dxz        
    11     -0.548813  1 Cl px                30     -0.548813  2 Cl px         
     8      0.489748  1 Cl px                27      0.489748  2 Cl px         

 Vector   23  Occ=0.000000D+00  E= 6.819726D-01  Symmetry=eu
              MO Center=  4.9D-23, -9.3D-22, -8.3D-17, r^2= 2.3D+00
   Bfn.  Coefficient  Atom+Function         Bfn.  Coefficient  Atom+Function  
  ----- ------------  ---------------      ----- ------------  ---------------
    18      0.843273  1 Cl dyz               37     -0.843273  2 Cl dyz        
    12     -0.548813  1 Cl py                31     -0.548813  2 Cl py         
     9      0.489748  1 Cl py                28      0.489748  2 Cl py         

 Vector   24  Occ=0.000000D+00  E= 7.431072D-01  Symmetry=eu
              MO Center=  1.0D-22,  4.6D-23, -4.9D-17, r^2= 2.2D+00
   Bfn.  Coefficient  Atom+Function         Bfn.  Coefficient  Atom+Function  
  ----- ------------  ---------------      ----- ------------  ---------------
    16      0.669466  1 Cl dxz               35     -0.669466  2 Cl dxz        
     8     -0.580097  1 Cl px                27     -0.580097  2 Cl px         
    11      0.446975  1 Cl px                30      0.446975  2 Cl px         
    18      0.304191  1 Cl dyz               37     -0.304191  2 Cl dyz        
     9     -0.263583  1 Cl py                28     -0.263583  2 Cl py         

 Vector   25  Occ=0.000000D+00  E= 7.431072D-01  Symmetry=eu
              MO Center=  5.5D-16, -2.8D-16,  2.0D-15, r^2= 2.2D+00
   Bfn.  Coefficient  Atom+Function         Bfn.  Coefficient  Atom+Function  
  ----- ------------  ---------------      ----- ------------  ---------------
    18      0.669466  1 Cl dyz               37     -0.669466  2 Cl dyz        
     9     -0.580097  1 Cl py                28     -0.580097  2 Cl py         
    12      0.446975  1 Cl py                31      0.446975  2 Cl py         
    16     -0.304191  1 Cl dxz               35      0.304191  2 Cl dxz        
     8      0.263583  1 Cl px                27      0.263583  2 Cl px         

 Vector   26  Occ=0.000000D+00  E= 7.679218D-01  Symmetry=eg
              MO Center= -5.9D-23, -1.1D-26, -3.5D-16, r^2= 3.3D+00
   Bfn.  Coefficient  Atom+Function         Bfn.  Coefficient  Atom+Function  
  ----- ------------  ---------------      ----- ------------  ---------------
    11      1.065439  1 Cl px                30     -1.065439  2 Cl px         
     8     -0.797345  1 Cl px                27      0.797345  2 Cl px         
    16     -0.171849  1 Cl dxz               35     -0.171849  2 Cl dxz        

 Vector   27  Occ=0.000000D+00  E= 7.679218D-01  Symmetry=eg
              MO Center= -1.4D-22,  1.9D-21, -2.5D-15, r^2= 3.3D+00
   Bfn.  Coefficient  Atom+Function         Bfn.  Coefficient  Atom+Function  
  ----- ------------  ---------------      ----- ------------  ---------------
    12      1.065439  1 Cl py                31     -1.065439  2 Cl py         
     9     -0.797345  1 Cl py                28      0.797345  2 Cl py         
    18     -0.171849  1 Cl dyz               37     -0.171849  2 Cl dyz        


 center of mass
 --------------
 x =   0.00000000 y =   0.00000000 z =   0.00000000

 moments of inertia (a.u.)
 ------------------
         192.151377331396           0.000000000000           0.000000000000
           0.000000000000         192.151377331396           0.000000000000
           0.000000000000           0.000000000000           0.000000000000

  Mulliken analysis of the total density
  --------------------------------------

    Atom       Charge   Shell Charges
 -----------   ------   -------------------------------------------------------
    1 Cl  17    17.00   2.00  2.01  0.94  0.96  6.00  3.08  1.90  0.11
    2 Cl  17    17.00   2.00  2.01  0.94  0.96  6.00  3.08  1.90  0.11

       Multipole analysis of the density wrt the origin
       ------------------------------------------------

     L   x y z        total         open         nuclear
     -   - - -        -----         ----         -------
     0   0 0 0     -0.000000      0.000000     34.000000

     1   1 0 0     -0.000000      0.000000      0.000000
     1   0 1 0      0.000000      0.000000      0.000000
     1   0 0 1      0.000000      0.000000      0.000000

     2   2 0 0    -18.608238      0.000000      0.000000
     2   1 1 0      0.000000      0.000000      0.000000
     2   1 0 1      0.000000      0.000000      0.000000
     2   0 2 0    -18.608238      0.000000      0.000000
     2   0 1 1     -0.000000      0.000000      0.000000
     2   0 0 2    -17.211953      0.000000     93.413807


 Parallel integral file used       4 records with       0 large values

                              NWChem Gradients Module
                              -----------------------


                     Cl2 cc-pvdz HF-SCF geometry optimization


  wavefunction    =   RHF     

  Using symmetry


                         RHF ENERGY GRADIENTS

    atom               coordinates                        gradient
                 x          y          z           x          y          z
   1 cl      0.000000   0.000000  -1.657548    0.000000   0.000000   0.207199
   2 cl      0.000000   0.000000   1.657548    0.000000  -0.000000  -0.207199

                 ----------------------------------------
                 |  Time  |  1-e(secs)   |  2-e(secs)   |
                 ----------------------------------------
                 |  CPU   |       0.00   |       0.77   |
                 ----------------------------------------
                 |  WALL  |       0.00   |       0.77   |
                 ----------------------------------------
  no constraints, skipping    0.0000000000000000     

  Step       Energy      Delta E   Gmax     Grms     Xrms     Xmax   Walltime
  ---- ---------------- -------- -------- -------- -------- -------- --------
@    1    -918.92301760 -2.2D-01  0.20720  0.20720  0.13871  0.24025      3.7
                                                                    



                                Z-matrix (autoz)
                                -------- 

 Units are Angstrom for bonds and degrees for angles

      Type          Name      I     J     K     L     M      Value     Gradient
      ----------- --------  ----- ----- ----- ----- ----- ---------- ----------
    1 Stretch                  1     2                       1.75427   -0.20720

  no constraints, skipping    0.0000000000000000     
  no constraints, skipping    0.0000000000000000     
  no constraints, skipping    0.0000000000000000     
                                 NWChem SCF Module
                                 -----------------


                     Cl2 cc-pvdz HF-SCF geometry optimization



  ao basis        = "ao basis"
  functions       =    38
  atoms           =     2
  closed shells   =    17
  open shells     =     0
  charge          =   0.00
  wavefunction    = RHF 
  input vectors   = ./Cl2_hf_ccpvdz_geopt.movecs
  output vectors  = ./Cl2_hf_ccpvdz_geopt.movecs
  use symmetry    = T
  symmetry adapt  = T


 Summary of "ao basis" -> "ao basis" (cartesian)
 ------------------------------------------------------------------------------
       Tag                 Description            Shells   Functions and Types
 ---------------- ------------------------------  ------  ---------------------
 cl                         cc-pvdz                  8       19   4s3p1d


      Symmetry analysis of basis
      --------------------------

        a1g         9
        a1u         0
        a2g         0
        a2u         9
        b1g         1
        b1u         1
        b2g         1
        b2u         1
        eg          8
        eu          8


 Forming initial guess at       3.7s


 Loading old vectors from job with title :

Cl2 cc-pvdz HF-SCF geometry optimization


      Symmetry analysis of molecular orbitals - initial
      -------------------------------------------------

  Numbering of irreducible representations: 

     1 a1g         2 a1u         3 a2g         4 a2u         5 b1g     
     6 b1u         7 b2g         8 b2u         9 eg         10 eu      

  Orbital symmetries:

     1 a1g         2 a2u         3 a1g         4 a2u         5 a1g     
     6 a2u         7 eu          8 eu          9 eg         10 eg      
    11 a1g        12 a2u        13 a1g        14 eu         15 eu      
    16 eg         17 eg         18 a2u        19 a1g        20 a1g     
    21 a2u        22 eu         23 eu         24 eu         25 eu      
    26 eg         27 eg      


 Starting SCF solution at       3.7s



 ----------------------------------------------
         Quadratically convergent ROHF

 Convergence threshold     :          1.000E-04
 Maximum no. of iterations :           30
 Final Fock-matrix accuracy:          1.000E-07
 ----------------------------------------------


 #quartets = 6.337D+03 #integrals = 5.568D+04 #direct =  0.0% #cached =100.0%


 Integral file          = ./Cl2_hf_ccpvdz_geopt.aoints.0
 Record size in doubles =  65536        No. of integs per rec  =  43688
 Max. records in memory =      2        Max. records in file   = 463242
 No. of bits per label  =      8        No. of bits per value  =     64


File balance: exchanges=     0  moved=     0  time=   0.0


              iter       energy          gnorm     gmax       time
             ----- ------------------- --------- --------- --------
                 1     -918.9450027630  1.63D-01  7.24D-02      3.7
                 2     -918.9476740570  5.51D-03  2.81D-03      3.7
                 3     -918.9476769032  2.04D-05  8.57D-06      3.8


       Final RHF  results 
       ------------------ 

         Total SCF energy =   -918.947676903220
      One-electron energy =  -1435.515729268866
      Two-electron energy =    433.347979686654
 Nuclear repulsion energy =     83.220072678992

        Time for solution =      0.4s



       Symmetry analysis of molecular orbitals - final
       -----------------------------------------------

  Numbering of irreducible representations: 

     1 a1g         2 a1u         3 a2g         4 a2u         5 b1g     
     6 b1u         7 b2g         8 b2u         9 eg         10 eu      

  Orbital symmetries:

     1 a1g         2 a2u         3 a1g         4 a2u         5 a1g     
     6 a2u         7 eu          8 eu          9 eg         10 eg      
    11 a1g        12 a2u        13 a1g        14 eu         15 eu      
    16 eg         17 eg         18 a2u        19 a1g        20 a1g     
    21 a2u        22 eu         23 eu         24 eu         25 eu      
    26 eg         27 eg      

             Final eigenvalues
             -----------------

              1      
    1 -104.8874
    2 -104.8874
    3  -10.6131
    4  -10.6129
    5   -8.0828
    6   -8.0823
    7   -8.0766
    8   -8.0766
    9   -8.0766
   10   -8.0766
   11   -1.2778
   12   -0.9968
   13   -0.6231
   14   -0.5935
   15   -0.5935
   16   -0.4265
   17   -0.4265
   18    0.1031
   19    0.5291
   20    0.6706
   21    0.6759
   22    0.7119
   23    0.7119
   24    0.7334
   25    0.7334
   26    0.7639
   27    0.7639

                       ROHF Final Molecular Orbital Analysis
                       -------------------------------------

 Vector    8  Occ=2.000000D+00  E=-8.076601D+00  Symmetry=eu
              MO Center=  6.6D-20,  1.5D-18,  1.3D-16, r^2= 9.0D-01
   Bfn.  Coefficient  Atom+Function         Bfn.  Coefficient  Atom+Function  
  ----- ------------  ---------------      ----- ------------  ---------------
     5      0.668974  1 Cl px                24      0.668974  2 Cl px         
     6      0.228526  1 Cl py                25      0.228526  2 Cl py         

 Vector    9  Occ=2.000000D+00  E=-8.076565D+00  Symmetry=eg
              MO Center=  1.6D-25,  4.7D-26, -1.1D-16, r^2= 9.0D-01
   Bfn.  Coefficient  Atom+Function         Bfn.  Coefficient  Atom+Function  
  ----- ------------  ---------------      ----- ------------  ---------------
     5      0.706895  1 Cl px                24     -0.706895  2 Cl px         

 Vector   10  Occ=2.000000D+00  E=-8.076565D+00  Symmetry=eg
              MO Center= -9.8D-18,  2.6D-17,  3.7D-17, r^2= 9.0D-01
   Bfn.  Coefficient  Atom+Function         Bfn.  Coefficient  Atom+Function  
  ----- ------------  ---------------      ----- ------------  ---------------
     6      0.706895  1 Cl py                25     -0.706895  2 Cl py         

 Vector   11  Occ=2.000000D+00  E=-1.277771D+00  Symmetry=a1g
              MO Center= -5.3D-20,  5.0D-21,  6.9D-17, r^2= 1.1D+00
   Bfn.  Coefficient  Atom+Function         Bfn.  Coefficient  Atom+Function  
  ----- ------------  ---------------      ----- ------------  ---------------
     3      0.348073  1 Cl s                 22      0.348073  2 Cl s          
     4      0.284430  1 Cl s                 23      0.284430  2 Cl s          

 Vector   12  Occ=2.000000D+00  E=-9.967543D-01  Symmetry=a2u
              MO Center= -2.7D-19, -3.4D-17, -3.8D-16, r^2= 2.0D+00
   Bfn.  Coefficient  Atom+Function         Bfn.  Coefficient  Atom+Function  
  ----- ------------  ---------------      ----- ------------  ---------------
     4      0.443863  1 Cl s                 23     -0.443863  2 Cl s          
     3      0.387307  1 Cl s                 22     -0.387307  2 Cl s          

 Vector   13  Occ=2.000000D+00  E=-6.231257D-01  Symmetry=a1g
              MO Center=  5.7D-20,  1.9D-20,  5.6D-17, r^2= 2.2D+00
   Bfn.  Coefficient  Atom+Function         Bfn.  Coefficient  Atom+Function  
  ----- ------------  ---------------      ----- ------------  ---------------
    10      0.435200  1 Cl pz                29     -0.435200  2 Cl pz         
     4     -0.263235  1 Cl s                 23     -0.263235  2 Cl s          
    13      0.234195  1 Cl pz                32     -0.234195  2 Cl pz         

 Vector   14  Occ=2.000000D+00  E=-5.935106D-01  Symmetry=eu
              MO Center=  1.7D-17,  3.8D-17, -4.0D-17, r^2= 1.8D+00
   Bfn.  Coefficient  Atom+Function         Bfn.  Coefficient  Atom+Function  
  ----- ------------  ---------------      ----- ------------  ---------------
     8      0.388623  1 Cl px                27      0.388623  2 Cl px         
    11      0.265595  1 Cl px                30      0.265595  2 Cl px         
     9      0.172559  1 Cl py                28      0.172559  2 Cl py         

 Vector   15  Occ=2.000000D+00  E=-5.935106D-01  Symmetry=eu
              MO Center=  1.7D-19, -7.6D-20,  3.3D-17, r^2= 1.8D+00
   Bfn.  Coefficient  Atom+Function         Bfn.  Coefficient  Atom+Function  
  ----- ------------  ---------------      ----- ------------  ---------------
     9      0.388623  1 Cl py                28      0.388623  2 Cl py         
    12      0.265595  1 Cl py                31      0.265595  2 Cl py         
     8     -0.172559  1 Cl px                27     -0.172559  2 Cl px         

 Vector   16  Occ=2.000000D+00  E=-4.264523D-01  Symmetry=eg
              MO Center=  4.7D-19,  2.4D-19, -5.8D-16, r^2= 2.1D+00
   Bfn.  Coefficient  Atom+Function         Bfn.  Coefficient  Atom+Function  
  ----- ------------  ---------------      ----- ------------  ---------------
     9      0.466243  1 Cl py                28     -0.466243  2 Cl py         
    12      0.408277  1 Cl py                31     -0.408277  2 Cl py         

 Vector   17  Occ=2.000000D+00  E=-4.264523D-01  Symmetry=eg
              MO Center= -1.1D-22,  2.7D-22,  4.0D-17, r^2= 2.1D+00
   Bfn.  Coefficient  Atom+Function         Bfn.  Coefficient  Atom+Function  
  ----- ------------  ---------------      ----- ------------  ---------------
     8      0.466243  1 Cl px                27     -0.466243  2 Cl px         
    11      0.408277  1 Cl px                30     -0.408277  2 Cl px         

 Vector   18  Occ=0.000000D+00  E= 1.031025D-01  Symmetry=a2u
              MO Center= -1.2D-19, -1.4D-17,  0.0D+00, r^2= 2.9D+00
   Bfn.  Coefficient  Atom+Function         Bfn.  Coefficient  Atom+Function  
  ----- ------------  ---------------      ----- ------------  ---------------
    13      0.886162  1 Cl pz                32      0.886162  2 Cl pz         
     4      0.698228  1 Cl s                 23     -0.698228  2 Cl s          
    10      0.387034  1 Cl pz                29      0.387034  2 Cl pz         

 Vector   19  Occ=0.000000D+00  E= 5.290621D-01  Symmetry=a1g
              MO Center=  9.5D-20,  3.3D-20,  5.6D-17, r^2= 2.1D+00
   Bfn.  Coefficient  Atom+Function         Bfn.  Coefficient  Atom+Function  
  ----- ------------  ---------------      ----- ------------  ---------------
     4      0.668522  1 Cl s                 23      0.668522  2 Cl s          
    19     -0.544255  1 Cl dzz               38     -0.544255  2 Cl dzz        
    13      0.521826  1 Cl pz                32     -0.521826  2 Cl pz         
     3     -0.444344  1 Cl s                 22     -0.444344  2 Cl s          
     2     -0.376035  1 Cl s                 21     -0.376035  2 Cl s          

 Vector   20  Occ=0.000000D+00  E= 6.705513D-01  Symmetry=a1g
              MO Center= -5.6D-20,  8.6D-20,  1.7D-17, r^2= 4.3D+00
   Bfn.  Coefficient  Atom+Function         Bfn.  Coefficient  Atom+Function  
  ----- ------------  ---------------      ----- ------------  ---------------
     4      1.386932  1 Cl s                 23      1.386932  2 Cl s          
     3     -0.857290  1 Cl s                 22     -0.857290  2 Cl s          
     2     -0.639988  1 Cl s                 21     -0.639988  2 Cl s          
    13     -0.505756  1 Cl pz                32      0.505756  2 Cl pz         
    10      0.402550  1 Cl pz                29     -0.402550  2 Cl pz         

 Vector   21  Occ=0.000000D+00  E= 6.759078D-01  Symmetry=a2u
              MO Center=  1.0D-20,  1.2D-18,  2.4D-16, r^2= 4.4D+00
   Bfn.  Coefficient  Atom+Function         Bfn.  Coefficient  Atom+Function  
  ----- ------------  ---------------      ----- ------------  ---------------
    13      1.120070  1 Cl pz                32      1.120070  2 Cl pz         
    10     -0.743458  1 Cl pz                29     -0.743458  2 Cl pz         
    19      0.253922  1 Cl dzz               38     -0.253922  2 Cl dzz        
     3      0.241578  1 Cl s                 22     -0.241578  2 Cl s          
     2      0.160108  1 Cl s                 21     -0.160108  2 Cl s          

 Vector   22  Occ=0.000000D+00  E= 7.118558D-01  Symmetry=eu
              MO Center=  1.9D-20,  1.9D-20, -6.9D-18, r^2= 2.7D+00
   Bfn.  Coefficient  Atom+Function         Bfn.  Coefficient  Atom+Function  
  ----- ------------  ---------------      ----- ------------  ---------------
     8      0.488736  1 Cl px                11     -0.487210  1 Cl px         
    27      0.488736  2 Cl px                30     -0.487210  2 Cl px         
     9      0.480902  1 Cl py                12     -0.479401  1 Cl py         
    28      0.480902  2 Cl py                31     -0.479401  2 Cl py         
    16      0.402444  1 Cl dxz               35     -0.402444  2 Cl dxz        

 Vector   23  Occ=0.000000D+00  E= 7.118558D-01  Symmetry=eu
              MO Center= -5.8D-17,  5.7D-17,  3.8D-16, r^2= 2.7D+00
   Bfn.  Coefficient  Atom+Function         Bfn.  Coefficient  Atom+Function  
  ----- ------------  ---------------      ----- ------------  ---------------
     9     -0.488736  1 Cl py                12      0.487210  1 Cl py         
    28     -0.488736  2 Cl py                31      0.487210  2 Cl py         
[...]
  ----- ------------  ---------------      ----- ------------  ---------------
    13      0.727079  1 Cl pz                32      0.727079  2 Cl pz         
     4      0.453501  1 Cl s                 23     -0.453501  2 Cl s          
    10      0.414560  1 Cl pz                29      0.414560  2 Cl pz         

 Vector   19  Occ=0.000000D+00  E= 5.942252D-01  Symmetry=a1g
              MO Center=  1.0D-19,  3.4D-20, -1.4D-16, r^2= 2.0D+00
   Bfn.  Coefficient  Atom+Function         Bfn.  Coefficient  Atom+Function  
  ----- ------------  ---------------      ----- ------------  ---------------
     4      0.781720  1 Cl s                 23      0.781720  2 Cl s          
    19     -0.636722  1 Cl dzz               38     -0.636722  2 Cl dzz        
     3     -0.468008  1 Cl s                 22     -0.468008  2 Cl s          
    13      0.424994  1 Cl pz                32     -0.424994  2 Cl pz         
     2     -0.390263  1 Cl s                 21     -0.390263  2 Cl s          

 Vector   20  Occ=0.000000D+00  E= 6.654554D-01  Symmetry=a1g
              MO Center=  3.2D-20,  1.1D-20, -3.8D-17, r^2= 4.5D+00
   Bfn.  Coefficient  Atom+Function         Bfn.  Coefficient  Atom+Function  
  ----- ------------  ---------------      ----- ------------  ---------------
     4      1.354276  1 Cl s                 23      1.354276  2 Cl s          
     3     -0.847389  1 Cl s                 22     -0.847389  2 Cl s          
     2     -0.628379  1 Cl s                 21     -0.628379  2 Cl s          
    13     -0.499964  1 Cl pz                32      0.499964  2 Cl pz         
    10      0.393086  1 Cl pz                29     -0.393086  2 Cl pz         

 Vector   21  Occ=0.000000D+00  E= 6.699581D-01  Symmetry=a2u
              MO Center=  4.9D-23, -1.6D-24,  7.3D-16, r^2= 4.8D+00
   Bfn.  Coefficient  Atom+Function         Bfn.  Coefficient  Atom+Function  
  ----- ------------  ---------------      ----- ------------  ---------------
    13      1.067298  1 Cl pz                32      1.067298  2 Cl pz         
    10     -0.741616  1 Cl pz                29     -0.741616  2 Cl pz         
     3      0.306020  1 Cl s                 22     -0.306020  2 Cl s          
     2      0.204835  1 Cl s                 21     -0.204835  2 Cl s          
    19      0.182476  1 Cl dzz               38     -0.182476  2 Cl dzz        

 Vector   22  Occ=0.000000D+00  E= 7.052534D-01  Symmetry=eu
              MO Center= -3.3D-21,  5.5D-22,  1.4D-17, r^2= 2.8D+00
   Bfn.  Coefficient  Atom+Function         Bfn.  Coefficient  Atom+Function  
  ----- ------------  ---------------      ----- ------------  ---------------
     9      0.763054  1 Cl py                28      0.763054  2 Cl py         
    12     -0.674907  1 Cl py                31     -0.674907  2 Cl py         
    18     -0.357265  1 Cl dyz               37      0.357265  2 Cl dyz        

 Vector   23  Occ=0.000000D+00  E= 7.052534D-01  Symmetry=eu
              MO Center=  2.8D-22, -2.8D-22,  9.4D-17, r^2= 2.8D+00
   Bfn.  Coefficient  Atom+Function         Bfn.  Coefficient  Atom+Function  
  ----- ------------  ---------------      ----- ------------  ---------------
     8      0.763054  1 Cl px                27      0.763054  2 Cl px         
    11     -0.674907  1 Cl px                30     -0.674907  2 Cl px         
    16     -0.357265  1 Cl dxz               35      0.357265  2 Cl dxz        

 Vector   24  Occ=0.000000D+00  E= 7.588729D-01  Symmetry=eg
              MO Center=  1.6D-21,  8.1D-21,  1.2D-16, r^2= 3.5D+00
   Bfn.  Coefficient  Atom+Function         Bfn.  Coefficient  Atom+Function  
  ----- ------------  ---------------      ----- ------------  ---------------
    12      0.962820  1 Cl py                31     -0.962820  2 Cl py         
     9     -0.762823  1 Cl py                28      0.762823  2 Cl py         
    18     -0.264379  1 Cl dyz               37     -0.264379  2 Cl dyz        
    11      0.191784  1 Cl px                30     -0.191784  2 Cl px         
     8     -0.151947  1 Cl px                27      0.151947  2 Cl px         

 Vector   25  Occ=0.000000D+00  E= 7.588729D-01  Symmetry=eg
              MO Center=  9.1D-21, -1.8D-21,  1.3D-16, r^2= 3.5D+00
   Bfn.  Coefficient  Atom+Function         Bfn.  Coefficient  Atom+Function  
  ----- ------------  ---------------      ----- ------------  ---------------
    11      0.962820  1 Cl px                30     -0.962820  2 Cl px         
     8     -0.762823  1 Cl px                27      0.762823  2 Cl px         
    16     -0.264379  1 Cl dxz               35     -0.264379  2 Cl dxz        
    12     -0.191784  1 Cl py                31      0.191784  2 Cl py         
     9      0.151947  1 Cl py                28     -0.151947  2 Cl py         

 Vector   26  Occ=0.000000D+00  E= 7.813928D-01  Symmetry=eu
              MO Center= -2.4D-25, -3.6D-25, -1.4D-16, r^2= 2.1D+00
   Bfn.  Coefficient  Atom+Function         Bfn.  Coefficient  Atom+Function  
  ----- ------------  ---------------      ----- ------------  ---------------
    16      1.114537  1 Cl dxz               35     -1.114537  2 Cl dxz        
    11     -0.313305  1 Cl px                30     -0.313305  2 Cl px         
     8      0.249251  1 Cl px                27      0.249251  2 Cl px         

 Vector   27  Occ=0.000000D+00  E= 7.813928D-01  Symmetry=eu
              MO Center=  4.8D-27, -5.5D-26, -5.6D-17, r^2= 2.1D+00
   Bfn.  Coefficient  Atom+Function         Bfn.  Coefficient  Atom+Function  
  ----- ------------  ---------------      ----- ------------  ---------------
    18      1.114537  1 Cl dyz               37     -1.114537  2 Cl dyz        
    12     -0.313305  1 Cl py                31     -0.313305  2 Cl py         
     9      0.249251  1 Cl py                28      0.249251  2 Cl py         


 center of mass
 --------------
 x =   0.00000000 y =   0.00000000 z =   0.00000000

 moments of inertia (a.u.)
 ------------------
         250.300718318848           0.000000000000           0.000000000000
           0.000000000000         250.300718318848           0.000000000000
           0.000000000000           0.000000000000           0.000000000000

  Mulliken analysis of the total density
  --------------------------------------

    Atom       Charge   Shell Charges
 -----------   ------   -------------------------------------------------------
    1 Cl  17    17.00   2.00  2.01  0.96  0.98  6.00  2.97  2.02  0.07
    2 Cl  17    17.00   2.00  2.01  0.96  0.98  6.00  2.97  2.02  0.07

       Multipole analysis of the density wrt the origin
       ------------------------------------------------

     L   x y z        total         open         nuclear
     -   - - -        -----         ----         -------
     0   0 0 0     -0.000000      0.000000     34.000000

     1   1 0 0     -0.000000      0.000000      0.000000
     1   0 1 0     -0.000000      0.000000      0.000000
     1   0 0 1     -0.000000      0.000000      0.000000

     2   2 0 0    -18.958926      0.000000      0.000000
     2   1 1 0     -0.000000      0.000000      0.000000
     2   1 0 1      0.000000      0.000000      0.000000
     2   0 2 0    -18.958926      0.000000      0.000000
     2   0 1 1      0.000000      0.000000      0.000000
     2   0 0 2    -16.613365      0.000000    121.682932


 Parallel integral file used       4 records with       0 large values

 Line search: 
     step= 1.00 grad=-6.0D-09 hess= 3.5D-09 energy=   -918.962887 mode=accept  
 new step= 1.00                   predicted energy=   -918.962887
  no constraints, skipping    0.0000000000000000     
  no constraints, skipping    0.0000000000000000     
  no constraints, skipping    0.0000000000000000     

          --------
          Step   5
          --------


                         Geometry "geometry" -> "geometry"
                         ---------------------------------

 Output coordinates in angstroms (scale by  1.889725989 to convert to a.u.)

  No.       Tag          Charge          X              Y              Z
 ---- ---------------- ---------- -------------- -------------- --------------
    1 cl                  17.0000     0.00000000     0.00000000    -1.00109787
    2 cl                  17.0000     0.00000000     0.00000000     1.00109787

      Atomic Mass 
      ----------- 

      cl                34.968850


 Effective nuclear repulsion energy (a.u.)      76.3822543511

            Nuclear Dipole moment (a.u.) 
            ----------------------------
        X                 Y               Z
 ---------------- ---------------- ----------------
     0.0000000000     0.0000000000     0.0000000000

      Symmetry information
      --------------------

 Group name             D4h       
 Group number             28
 Group order              16
 No. of unique centers     1

      Symmetry unique atoms

     1

                                 NWChem SCF Module
                                 -----------------


                     Cl2 cc-pvdz HF-SCF geometry optimization



  ao basis        = "ao basis"
  functions       =    38
  atoms           =     2
  closed shells   =    17
  open shells     =     0
  charge          =   0.00
  wavefunction    = RHF 
  input vectors   = ./Cl2_hf_ccpvdz_geopt.movecs
  output vectors  = ./Cl2_hf_ccpvdz_geopt.movecs
  use symmetry    = T
  symmetry adapt  = T


 Summary of "ao basis" -> "ao basis" (cartesian)
 ------------------------------------------------------------------------------
       Tag                 Description            Shells   Functions and Types
 ---------------- ------------------------------  ------  ---------------------
 cl                         cc-pvdz                  8       19   4s3p1d


      Symmetry analysis of basis
      --------------------------

        a1g         9
        a1u         0
        a2g         0
        a2u         9
        b1g         1
        b1u         1
        b2g         1
        b2u         1
        eg          8
        eu          8


  The SCF is already converged 

         Total SCF energy =   -918.962887027721

                              NWChem Gradients Module
                              -----------------------


                     Cl2 cc-pvdz HF-SCF geometry optimization


  wavefunction    =   RHF     

  Using symmetry


                         RHF ENERGY GRADIENTS

    atom               coordinates                        gradient
                 x          y          z           x          y          z
   1 cl      0.000000   0.000000  -1.891801    0.000000   0.000000   0.000000
   2 cl      0.000000   0.000000   1.891801    0.000000   0.000000  -0.000000

                 ----------------------------------------
                 |  Time  |  1-e(secs)   |  2-e(secs)   |
                 ----------------------------------------
                 |  CPU   |       0.00   |       0.60   |
                 ----------------------------------------
                 |  WALL  |       0.00   |       0.60   |
                 ----------------------------------------
  no constraints, skipping    0.0000000000000000     

  Step       Energy      Delta E   Gmax     Grms     Xrms     Xmax   Walltime
  ---- ---------------- -------- -------- -------- -------- -------- --------
@    5    -918.96288703 -2.4D-09  0.00000  0.00000  0.00005  0.00008      9.5
                                     ok       ok       ok       ok  



                                Z-matrix (autoz)
                                -------- 

 Units are Angstrom for bonds and degrees for angles

      Type          Name      I     J     K     L     M      Value     Gradient
      ----------- --------  ----- ----- ----- ----- ----- ---------- ----------
    1 Stretch                  1     2                       2.00220   -0.00000


      ----------------------
      Optimization converged
      ----------------------


  Step       Energy      Delta E   Gmax     Grms     Xrms     Xmax   Walltime
  ---- ---------------- -------- -------- -------- -------- -------- --------
@    5    -918.96288703 -2.4D-09  0.00000  0.00000  0.00005  0.00008      9.5
                                     ok       ok       ok       ok  



                                Z-matrix (autoz)
                                -------- 

 Units are Angstrom for bonds and degrees for angles

      Type          Name      I     J     K     L     M      Value     Gradient
      ----------- --------  ----- ----- ----- ----- ----- ---------- ----------
    1 Stretch                  1     2                       2.00220   -0.00000



                         Geometry "geometry" -> "geometry"
                         ---------------------------------

 Output coordinates in angstroms (scale by  1.889725989 to convert to a.u.)

  No.       Tag          Charge          X              Y              Z
 ---- ---------------- ---------- -------------- -------------- --------------
    1 cl                  17.0000     0.00000000     0.00000000    -1.00109787
    2 cl                  17.0000     0.00000000     0.00000000     1.00109787

      Atomic Mass 
      ----------- 

      cl                34.968850


 Effective nuclear repulsion energy (a.u.)      76.3822543511

            Nuclear Dipole moment (a.u.) 
            ----------------------------
        X                 Y               Z
 ---------------- ---------------- ----------------
     0.0000000000     0.0000000000     0.0000000000

      Symmetry information
      --------------------

 Group name             D4h       
 Group number             28
 Group order              16
 No. of unique centers     1

      Symmetry unique atoms

     1


                Final and change from initial internal coordinates
                --------------------------------------------------



                                Z-matrix (autoz)
                                -------- 

 Units are Angstrom for bonds and degrees for angles

      Type          Name      I     J     K     L     M      Value       Change
      ----------- --------  ----- ----- ----- ----- ----- ---------- ----------
    1 Stretch                  1     2                       2.00220    0.50220

 ==============================================================================
                                internuclear distances
 ------------------------------------------------------------------------------
       center one      |      center two      | atomic units |  angstroms
 ------------------------------------------------------------------------------
    2 cl               |   1 cl               |     3.78360  |     2.00220
 ------------------------------------------------------------------------------
                         number of included internuclear distances:          1
 ==============================================================================




 Task  times  cpu:        8.7s     wall:        9.4s


                                NWChem Input Module
                                -------------------


 Summary of allocated global arrays
-----------------------------------
  No active global arrays



                         GA Statistics for process    0
                         ------------------------------

       create   destroy   get      put      acc     scatter   gather  read&inc
calls: 2341     2341     2.83e+04 1.08e+04 1.03e+04    0        0      644     
number of processes/call 0.00e+00 0.00e+00 0.00e+00 0.00e+00 0.00e+00
bytes total:             3.18e+07 6.81e+06 1.83e+07 0.00e+00 0.00e+00 5.15e+03
bytes remote:            1.58e+07 2.26e+06 9.76e+06 0.00e+00 0.00e+00 0.00e+00
Max memory consumed for GA by this process: 74200 bytes

MA_summarize_allocated_blocks: starting scan ...
MA_summarize_allocated_blocks: scan completed: 0 heap blocks, 0 stack blocks
MA usage statistics:

	allocation statistics:
					      heap	     stack
					      ----	     -----
	current number of blocks	         0	         0
	maximum number of blocks	        20	        29
	current total bytes		         0	         0
	maximum total bytes		   1068592	  31951736
	maximum total K-bytes		      1069	     31952
	maximum total M-bytes		         2	        32


                                     CITATION
                                     --------
                Please cite the following reference when publishing
                           results obtained with NWChem:

          E. Apr, E. J. Bylaska, W. A. de Jong, N. Govind, K. Kowalski,
       T. P. Straatsma, M. Valiev, H. J. J. van Dam, Y. Alexeev, J. Anchell,
       V. Anisimov, F. W. Aquino, R. Atta-Fynn, J. Autschbach, N. P. Bauman,
     J. C. Becca, D. E. Bernholdt, K. Bhaskaran-Nair, S. Bogatko, P. Borowski,
        J. Boschen, J. Brabec, A. Bruner, E. Caut, Y. Chen, G. N. Chuev,
      C. J. Cramer, J. Daily, M. J. O. Deegan, T. H. Dunning Jr., M. Dupuis,
   K. G. Dyall, G. I. Fann, S. A. Fischer, A. Fonari, H. Frchtl, L. Gagliardi,
      J. Garza, N. Gawande, S. Ghosh, K. Glaesemann, A. W. Gtz, J. Hammond,
       V. Helms, E. D. Hermes, K. Hirao, S. Hirata, M. Jacquelin, L. Jensen,
   B. G. Johnson, H. Jnsson, R. A. Kendall, M. Klemm, R. Kobayashi, V. Konkov,
      S. Krishnamoorthy, M. Krishnan, Z. Lin, R. D. Lins, R. J. Littlefield,
      A. J. Logsdail, K. Lopata, W. Ma, A. V. Marenich, J. Martin del Campo,
   D. Mejia-Rodriguez, J. E. Moore, J. M. Mullin, T. Nakajima, D. R. Nascimento,
    J. A. Nichols, P. J. Nichols, J. Nieplocha, A. Otero-de-la-Roza, B. Palmer,
    A. Panyala, T. Pirojsirikul, B. Peng, R. Peverati, J. Pittner, L. Pollack,
   R. M. Richard, P. Sadayappan, G. C. Schatz, W. A. Shelton, D. W. Silverstein,
   D. M. A. Smith, T. A. Soares, D. Song, M. Swart, H. L. Taylor, G. S. Thomas,
            V. Tipparaju, D. G. Truhlar, K. Tsemekhman, T. Van Voorhis,
     . Vzquez-Mayagoitia, P. Verma, O. Villa, A. Vishnu, K. D. Vogiatzis,
        D. Wang, J. H. Weare, M. J. Williamson, T. L. Windus, K. Woliski,
        A. T. Wong, Q. Wu, C. Yang, Q. Yu, M. Zacharias, Z. Zhang, Y. Zhao,
                                and R. J. Harrison
                        "NWChem: Past, present, and future
                         J. Chem. Phys. 152, 184102 (2020)
                               doi:10.1063/5.0004997

                                      AUTHORS
                                      -------
     E. Apra, E. J. Bylaska, N. Govind, K. Kowalski, M. Valiev, W. A. de Jong,
      T. P. Straatsma, H. J. J. van Dam, D. Wang, T. L. Windus, N. P. Bauman,
       A. Panyala, J. Hammond, J. Autschbach, K. Bhaskaran-Nair, J. Brabec,
    K. Lopata, S. A. Fischer, S. Krishnamoorthy, M. Jacquelin, W. Ma, M. Klemm,
       O. Villa, Y. Chen, V. Anisimov, F. Aquino, S. Hirata, M. T. Hackler,
           Eric Hermes, L. Jensen, J. E. Moore, J. C. Becca, V. Konjkov,
            D. Mejia-Rodriguez, T. Risthaus, M. Malagoli, A. Marenich,
   A. Otero-de-la-Roza, J. Mullin, P. Nichols, R. Peverati, J. Pittner, Y. Zhao,
        P.-D. Fan, A. Fonari, M. J. Williamson, R. J. Harrison, J. R. Rehr,
      M. Dupuis, D. Silverstein, D. M. A. Smith, J. Nieplocha, V. Tipparaju,
      M. Krishnan, B. E. Van Kuiken, A. Vazquez-Mayagoitia, M. Swart, Q. Wu,
   T. Van Voorhis, A. A. Auer, M. Nooijen, L. D. Crosby, E. Brown, G. Cisneros,
     G. I. Fann, H. Fruchtl, J. Garza, K. Hirao, R. A. Kendall, J. A. Nichols,
       K. Tsemekhman, K. Wolinski, J. Anchell, D. E. Bernholdt, P. Borowski,
       T. Clark, D. Clerc, H. Dachsel, M. J. O. Deegan, K. Dyall, D. Elwood,
      E. Glendening, M. Gutowski, A. C. Hess, J. Jaffe, B. G. Johnson, J. Ju,
        R. Kobayashi, R. Kutteh, Z. Lin, R. Littlefield, X. Long, B. Meng,
      T. Nakajima, S. Niu, L. Pollack, M. Rosing, K. Glaesemann, G. Sandrone,
      M. Stave, H. Taylor, G. Thomas, J. H. van Lenthe, A. T. Wong, Z. Zhang.

 Total times  cpu:        8.7s     wall:        9.5s
