 argument  1 = nh3_b3lyp_sto-3g.nw
                                         
                                         


             Northwest Computational Chemistry Package (NWChem) 7.0.2
             --------------------------------------------------------


                    Environmental Molecular Sciences Laboratory
                       Pacific Northwest National Laboratory
                                Richland, WA 99352

                              Copyright (c) 1994-2020
                       Pacific Northwest National Laboratory
                            Battelle Memorial Institute

             NWChem is an open-source computational chemistry package
                        distributed under the terms of the
                      Educational Community License (ECL) 2.0
             A copy of the license is included with this distribution
                              in the LICENSE.TXT file

                                  ACKNOWLEDGMENT
                                  --------------

            This software and its documentation were developed at the
            EMSL at Pacific Northwest National Laboratory, a multiprogram
            national laboratory, operated for the U.S. Department of Energy
            by Battelle under Contract Number DE-AC05-76RL01830. Support
            for this work was provided by the Department of Energy Office
            of Biological and Environmental Research, Office of Basic
            Energy Sciences, and the Office of Advanced Scientific Computing.


           Job information
           ---------------

    hostname        = DESKTOP-M7D5GNM
    program         = /usr/bin/nwchem.openmpi
    date            = Mon Oct 21 14:34:30 2024

    compiled        = Sat_Apr_09_17:12:10_2022
    source          = /build/nwchem-f1f4gx/nwchem-7.0.2/build-openmpi
    nwchem branch   = 7.0.2
    nwchem revision = N/A
    ga revision     = 5.8.1
    use scalapack   = T
    input           = nh3_b3lyp_sto-3g.nw
    prefix          = nh3.
    data base       = ./nh3.db
    status          = startup
    nproc           =        4
    time left       =     -1s



           Memory information
           ------------------

    heap     =   13107198 doubles =    100.0 Mbytes
    stack    =   13107195 doubles =    100.0 Mbytes
    global   =   26214400 doubles =    200.0 Mbytes (distinct from heap & stack)
    total    =   52428793 doubles =    400.0 Mbytes
    verify   = yes
    hardfail = no 


           Directory information
           ---------------------

  0 permanent = .
  0 scratch   = .




                                NWChem Input Module
                                -------------------


                            Ammonia in 6-31g basis set
                            --------------------------
 CS  symmetry detected


                             Geometry "geometry" -> ""
                             -------------------------

 Output coordinates in a.u. (scale by  1.000000000 to convert to a.u.)

  No.       Tag          Charge          X              Y              Z
 ---- ---------------- ---------- -------------- -------------- --------------
    1 N                    7.0000    -0.62956930    -0.24649445     0.00000000
    2 H                    1.0000     2.50151071     0.49066975     0.00000000
    3 H                    1.0000     0.47585457     4.94071780     0.00000000
    4 H                    1.0000     1.42961981    -3.70592640     0.00000000

      Atomic Mass 
      ----------- 

      N                 14.003070
      H                  1.007825


 Effective nuclear repulsion energy (a.u.)       5.7850815136

            Nuclear Dipole moment (a.u.) 
            ----------------------------
        X                 Y               Z
 ---------------- ---------------- ----------------
    -0.0000000000     0.0000000000     0.0000000000

      Symmetry information
      --------------------

 Group name             Cs        
 Group number              2
 Group order               2
 No. of unique centers     4

      Symmetry unique atoms

     1    2    3    4


            XYZ format geometry
            -------------------
     4
 geometry
 N                    -0.33315375    -0.13043925     0.00000000
 H                     1.32374255     0.25965127     0.00000000
 H                     0.25181141     2.61451545     0.00000000
 H                     0.75652228    -1.96109194     0.00000000

                      Basis "ao basis" -> "" (cartesian)
                      -----
  N (Nitrogen)
  ------------
            Exponent  Coefficients 
       -------------- ---------------------------------------------------------
  1 S  9.91061690E+01  0.154329
  1 S  1.80523120E+01  0.535328
  1 S  4.88566020E+00  0.444635

  2 S  3.78045590E+00 -0.099967
  2 S  8.78496600E-01  0.399513
  2 S  2.85714400E-01  0.700115

  3 P  3.78045590E+00  0.155916
  3 P  8.78496600E-01  0.607684
  3 P  2.85714400E-01  0.391957

  H (Hydrogen)
  ------------
            Exponent  Coefficients 
       -------------- ---------------------------------------------------------
  1 S  3.42525091E+00  0.154329
  1 S  6.23913730E-01  0.535328
  1 S  1.68855400E-01  0.444635



 Summary of "ao basis" -> "" (cartesian)
 ------------------------------------------------------------------------------
       Tag                 Description            Shells   Functions and Types
 ---------------- ------------------------------  ------  ---------------------
 N                           sto-3g                  3        5   2s1p
 H                           sto-3g                  1        1   1s



                                 NWChem DFT Module
                                 -----------------


                            Ammonia in 6-31g basis set




 Summary of "ao basis" -> "ao basis" (cartesian)
 ------------------------------------------------------------------------------
       Tag                 Description            Shells   Functions and Types
 ---------------- ------------------------------  ------  ---------------------
 N                           sto-3g                  3        5   2s1p
 H                           sto-3g                  1        1   1s


      Symmetry analysis of basis
      --------------------------

        a'          7
        a"          1

  Caching 1-el integrals 

            General Information
            -------------------
          SCF calculation type: DFT
          Wavefunction type:  closed shell.
          No. of atoms     :     4
          No. of electrons :    10
           Alpha electrons :     5
            Beta electrons :     5
          Charge           :     0
          Spin multiplicity:     1
          Use of symmetry is: on ; symmetry adaption is: on 
          Maximum number of iterations: 100
          AO basis - number of functions:     8
                     number of shells:     6
          Convergence on energy requested:  1.00D-06
          Convergence on density requested:  1.00D-05
          Convergence on gradient requested:  5.00D-04

              XC Information
              --------------
                         B3LYP Method XC Potential
                     Hartree-Fock (Exact) Exchange  0.200          
                        Slater Exchange Functional  0.800 local    
                    Becke 1988 Exchange Functional  0.720 non-local
              Lee-Yang-Parr Correlation Functional  0.810          
                  VWN I RPA Correlation Functional  0.190 local    

             Grid Information
             ----------------
          Grid used for XC integration:  medium    
          Radial quadrature: Mura-Knowles        
          Angular quadrature: Lebedev. 
          Tag              B.-S. Rad. Rad. Pts. Rad. Cut. Ang. Pts.
          ---              ---------- --------- --------- ---------
          N                   0.65       49           8.0       434
          H                   0.35       45          11.0       434
          Grid pruning is: on 
          Number of quadrature shells:   184
          Spatial weights used:  Erf1

          Convergence Information
          -----------------------
          Convergence aids based upon iterative change in 
          total energy or number of iterations. 
          Levelshifting, if invoked, occurs when the 
          HOMO/LUMO gap drops below (HL_TOL):  1.00D-02
          DIIS, if invoked, will attempt to extrapolate 
          using up to (NFOCK): 10 stored Fock matrices.

                    Damping( 0%)  Levelshifting(0.5)       DIIS
                  --------------- ------------------- ---------------
          dE  on:    start            ASAP                start   
          dE off:    2 iters        100 iters           100 iters 


      Screening Tolerance Information
      -------------------------------
          Density screening/tol_rho:  1.00D-10
          AO Gaussian exp screening on grid/accAOfunc:  14
          CD Gaussian exp screening on grid/accCDfunc:  20
          XC Gaussian exp screening on grid/accXCfunc:  20
          Schwarz screening/accCoul:  1.00D-08


      Superposition of Atomic Density Guess
      -------------------------------------

 Sum of atomic energies:         -55.01595943

      Non-variational initial energy
      ------------------------------

 Total energy =     -53.958628
 1-e energy   =     -86.627746
 2-e energy   =      26.884037
 HOMO         =      -0.071107
 LUMO         =      -0.056091


      Symmetry analysis of molecular orbitals - initial
      -------------------------------------------------

  Numbering of irreducible representations: 

     1 a'          2 a"      

  Orbital symmetries:

     1 a'          2 a'          3 a'          4 a'          5 a'      
     6 a"          7 a'          8 a'      

   Time after variat. SCF:      0.4
   Time prior to 1st pass:      0.4

 #quartets = 2.310D+02 #integrals = 4.590D+02 #direct =  0.0% #cached =100.0%


 Integral file          = ./nh3.aoints.0
 Record size in doubles =  65536        No. of integs per rec  =  43688
 Max. records in memory =      2        Max. records in file   = 463145
 No. of bits per label  =      8        No. of bits per value  =     64


File balance: exchanges=     0  moved=     0  time=   0.0


 Grid_pts file          = ./nh3.gridpts.0
 Record size in doubles =  12289        No. of grid_pts per rec  =   3070
 Max. records in memory =      9        Max. recs in file   =   2469910


           Memory utilization after 1st SCF pass: 
           Heap Space remaining (MW):       12.86            12864614
          Stack Space remaining (MW):       13.11            13106996

   convergence    iter        energy       DeltaE   RMS-Dens  Diis-err    time
 ---------------- ----- ----------------- --------- --------- ---------  ------
 d= 0,ls=0.0,diis     1    -54.7408317268 -6.05D+01  4.48D-01  7.59D-01     0.8
 d= 0,ls=0.0,diis     2    -53.1205379729  1.62D+00  4.46D-01  2.43D+00     0.8
 d= 0,ls=0.5,diis     3    -54.5231811695 -1.40D+00  4.50D-02  3.57D-01     0.8
 d= 0,ls=0.5,diis     4    -54.5938941525 -7.07D-02  5.09D-02  4.09D-01     0.8
 d= 0,ls=0.5,diis     5    -54.6747692690 -8.09D-02  5.35D-02  5.19D-01     0.9
 d= 0,ls=0.5,diis     6    -54.7511214876 -7.64D-02  8.68D-02  6.57D-01     0.9
 d= 0,ls=0.5,diis     7    -54.8040731499 -5.30D-02  9.19D-02  1.08D+00     0.9
  Resetting Diis
 d= 0,ls=0.5,diis     8    -54.8009939894  3.08D-03  4.58D-02  1.43D+00     1.0
 d= 0,ls=0.5,diis     9    -54.7479418061  5.31D-02  4.03D-01  1.54D+00     1.0
 d= 0,ls=0.5,diis    10    -53.9430453018  8.05D-01  6.54D-02  3.25D+00     1.0
 d= 0,ls=0.5,diis    11    -54.3660684443 -4.23D-01  4.42D-02  2.37D+00     1.0
 d= 0,ls=0.5,diis    12    -54.5984674447 -2.32D-01  5.23D-02  1.55D+00     1.1
 d= 0,ls=0.5,diis    13    -54.8090164509 -2.11D-01  3.88D-02  8.48D-01     1.1
 d= 0,ls=0.5,diis    14    -54.9300443055 -1.21D-01  3.75D-02  4.62D-01     1.1
 d= 0,ls=0.5,diis    15    -55.0159911752 -8.59D-02  6.10D-02  2.46D-01     1.2
 d= 0,ls=0.5,diis    16    -55.1074728238 -9.15D-02  1.61D-02  1.16D-01     1.2
 d= 0,ls=0.5,diis    17    -55.0922608618  1.52D-02  1.60D-02  1.48D-01     1.2
 d= 0,ls=0.5,diis    18    -55.0688644567  2.34D-02  6.49D-03  1.80D-01     1.2
 d= 0,ls=0.5,diis    19    -55.0603101468  8.55D-03  1.28D-02  1.93D-01     1.3
 d= 0,ls=0.5,diis    20    -55.0387848374  2.15D-02  1.30D-02  2.14D-01     1.3
 d= 0,ls=0.5,diis    21    -55.0156069203  2.32D-02  2.63D-02  2.27D-01     1.3
 d= 0,ls=0.5,diis    22    -55.0593288864 -4.37D-02  3.81D-02  1.96D-01     1.4
 d= 0,ls=0.5,diis    23    -55.1140644304 -5.47D-02  8.34D-03  1.26D-01     1.4
 d= 0,ls=0.5,diis    24    -55.1249746597 -1.09D-02  4.72D-03  9.98D-02     1.4
 d= 0,ls=0.5,diis    25    -55.1269488217 -1.97D-03  3.81D-03  9.27D-02     1.4
 d= 0,ls=0.5,diis    26    -55.1306179846 -3.67D-03  2.95D-03  8.39D-02     1.5
 d= 0,ls=0.5,diis    27    -55.1333201211 -2.70D-03  1.41D-03  7.76D-02     1.5
 d= 0,ls=0.5,diis    28    -55.1334332193 -1.13D-04  3.33D-03  7.72D-02     1.5
 d= 0,ls=0.5,diis    29    -55.1370564868 -3.62D-03  3.45D-03  6.91D-02     1.6
 d= 0,ls=0.5,diis    30    -55.1406005702 -3.54D-03  8.11D-03  6.10D-02     1.6
 d= 0,ls=0.5,diis    31    -55.1480621216 -7.46D-03  6.72D-03  4.31D-02     1.6
 d= 0,ls=0.5,diis    32    -55.1532358704 -5.17D-03  4.44D-03  3.01D-02     1.6
 d= 0,ls=0.5,diis    33    -55.1561315194 -2.90D-03  3.95D-03  2.26D-02     1.7
 d= 0,ls=0.5,diis    34    -55.1583533102 -2.22D-03  3.77D-03  1.67D-02     1.7
 d= 0,ls=0.5,diis    35    -55.1601471376 -1.79D-03  4.52D-03  1.19D-02     1.7
 d= 0,ls=0.5,diis    36    -55.1619193414 -1.77D-03  3.27D-03  7.03D-03     1.8
 d= 0,ls=0.5,diis    37    -55.1629030023 -9.84D-04  1.44D-03  4.31D-03     1.8
 d= 0,ls=0.5,diis    38    -55.1632438144 -3.41D-04  1.36D-03  3.38D-03     1.8
 d= 0,ls=0.5,diis    39    -55.1635290733 -2.85D-04  1.10D-03  2.59D-03     1.8
 d= 0,ls=0.5,diis    40    -55.1637341211 -2.05D-04  9.16D-04  2.02D-03     1.9
 d= 0,ls=0.5,diis    41    -55.1638840522 -1.50D-04  8.08D-04  1.60D-03     1.9
 d= 0,ls=0.5,diis    42    -55.1640022490 -1.18D-04  7.13D-04  1.26D-03     1.9
 d= 0,ls=0.5,diis    43    -55.1640956293 -9.34D-05  6.46D-04  9.96D-04     2.0
 d= 0,ls=0.5,diis    44    -55.1641713118 -7.57D-05  5.18D-04  7.80D-04     2.0
 d= 0,ls=0.5,diis    45    -55.1642243863 -5.31D-05  4.77D-04  6.29D-04     2.0
 d= 0,ls=0.5,diis    46    -55.1642688653 -4.45D-05  4.19D-04  5.02D-04     2.0
 d= 0,ls=0.5,diis    47    -55.1643038114 -3.49D-05  3.73D-04  4.01D-04     2.1
 d= 0,ls=0.5,diis    48    -55.1643317359 -2.79D-05  3.32D-04  3.21D-04     2.1
 d= 0,ls=0.5,diis    49    -55.1643540481 -2.23D-05  2.97D-04  2.57D-04     2.1
 d= 0,ls=0.5,diis    50    -55.1643718565 -1.78D-05  2.65D-04  2.05D-04     2.2
 d= 0,ls=0.5,diis    51    -55.1643861100 -1.43D-05  2.37D-04  1.64D-04     2.2
 d= 0,ls=0.5,diis    52    -55.1643975077 -1.14D-05  2.12D-04  1.31D-04     2.2
 d= 0,ls=0.5,diis    53    -55.1644066260 -9.12D-06  1.91D-04  1.04D-04     2.3
 d= 0,ls=0.5,diis    54    -55.1644139381 -7.31D-06  1.70D-04  8.31D-05     2.3
 d= 0,ls=0.5,diis    55    -55.1644197589 -5.82D-06  1.52D-04  6.62D-05     2.3
  Singularity in Pulay matrix. Error and Fock matrices removed. 
 d= 0,ls=0.5,diis    56    -55.1644243958 -4.64D-06  1.36D-04  5.28D-05     2.3
  Singularity in Pulay matrix. Error and Fock matrices removed. 
 d= 0,ls=0.5,diis    57    -55.1644280932 -3.70D-06  1.21D-04  4.20D-05     2.4
  Singularity in Pulay matrix. Error and Fock matrices removed. 
 d= 0,ls=0.5,diis    58    -55.1644310373 -2.94D-06  1.08D-04  3.35D-05     2.4
 d= 0,ls=0.5,diis    59    -55.1644333718 -2.33D-06  9.61D-05  2.67D-05     2.4
 d= 0,ls=0.5,diis    60    -55.1644352342 -1.86D-06  8.59D-05  2.13D-05     2.5
 d= 0,ls=0.5,diis    61    -55.1644367210 -1.49D-06  7.67D-05  1.70D-05     2.5
  Singularity in Pulay matrix. Error and Fock matrices removed. 
  Singularity in Pulay matrix. Error and Fock matrices removed. 
 d= 0,ls=0.5,diis    62    -55.1644379067 -1.19D-06  6.84D-05  1.36D-05     2.5
 d= 0,ls=0.5,diis    63    -55.1644388504 -9.44D-07  6.12D-05  1.08D-05     2.5
  Singularity in Pulay matrix. Error and Fock matrices removed. 
  Singularity in Pulay matrix. Error and Fock matrices removed. 
 d= 0,ls=0.5,diis    64    -55.1644396046 -7.54D-07  5.46D-05  8.63D-06     2.6
 d= 0,ls=0.5,diis    65    -55.1644402057 -6.01D-07  4.88D-05  6.89D-06     2.6
  Singularity in Pulay matrix. Error and Fock matrices removed. 
 d= 0,ls=0.5,diis    66    -55.1644406852 -4.79D-07  4.36D-05  5.50D-06     2.6
  Singularity in Pulay matrix. Error and Fock matrices removed. 
  Singularity in Pulay matrix. Error and Fock matrices removed. 
 d= 0,ls=0.5,diis    67    -55.1644410676 -3.82D-07  3.89D-05  4.38D-06     2.7
  Singularity in Pulay matrix. Error and Fock matrices removed. 
  Singularity in Pulay matrix. Error and Fock matrices removed. 
  Singularity in Pulay matrix. Error and Fock matrices removed. 
  Singularity in Pulay matrix. Error and Fock matrices removed. 
  Singularity in Pulay matrix. Error and Fock matrices removed. 
 d= 0,ls=0.5,diis    68    -55.1644413726 -3.05D-07  3.47D-05  3.50D-06     2.7
 d= 0,ls=0.5,diis    69    -55.1644416159 -2.43D-07  3.10D-05  2.79D-06     2.7
  Singularity in Pulay matrix. Error and Fock matrices removed. 
 d= 0,ls=0.5,diis    70    -55.1644418100 -1.94D-07  2.77D-05  2.23D-06     2.7
  Singularity in Pulay matrix. Error and Fock matrices removed. 
 d= 0,ls=0.5,diis    71    -55.1644419648 -1.55D-07  2.48D-05  1.78D-06     2.8
 d= 0,ls=0.5,diis    72    -55.1644420885 -1.24D-07  2.21D-05  1.42D-06     2.8
  Singularity in Pulay matrix. Error and Fock matrices removed. 
  Singularity in Pulay matrix. Error and Fock matrices removed. 
 d= 0,ls=0.5,diis    73    -55.1644421871 -9.87D-08  1.97D-05  1.13D-06     2.8
  Singularity in Pulay matrix. Error and Fock matrices removed. 
 d= 0,ls=0.5,diis    74    -55.1644422658 -7.87D-08  1.76D-05  9.02D-07     2.8
  Singularity in Pulay matrix. Error and Fock matrices removed. 
 d= 0,ls=0.5,diis    75    -55.1644423285 -6.27D-08  1.58D-05  7.20D-07     2.9
  Singularity in Pulay matrix. Error and Fock matrices removed. 
 d= 0,ls=0.5,diis    76    -55.1644423786 -5.00D-08  1.41D-05  5.74D-07     2.9
 d= 0,ls=0.5,diis    77    -55.1644424185 -3.99D-08  1.26D-05  4.58D-07     2.9
  Singularity in Pulay matrix. Error and Fock matrices removed. 
 d= 0,ls=0.5,diis    78    -55.1644424503 -3.18D-08  1.12D-05  3.65D-07     3.0
  Singularity in Pulay matrix. Error and Fock matrices removed. 
  Singularity in Pulay matrix. Error and Fock matrices removed. 
  Singularity in Pulay matrix. Error and Fock matrices removed. 
  Singularity in Pulay matrix. Error and Fock matrices removed. 
  Singularity in Pulay matrix. Error and Fock matrices removed. 
 d= 0,ls=0.5,diis    79    -55.1644424757 -2.54D-08  1.00D-05  2.92D-07     3.0
 d= 0,ls=0.5,diis    80    -55.1644424960 -2.03D-08  8.96D-06  2.33D-07     3.0


         Total DFT energy =      -55.164442512129
      One electron energy =      -86.956521147295
           Coulomb energy =       33.750125490985
    Exchange-Corr. energy =       -7.743128369424
 Nuclear repulsion energy =        5.785081513605

 Numeric. integr. density =        9.999998140790

     Total iterative time =      2.6s



                  Occupations of the irreducible representations
                  ----------------------------------------------

                     irrep           alpha         beta
                     --------     --------     --------
                     a'                4.0          4.0
                     a"                1.0          1.0


                       DFT Final Molecular Orbital Analysis
                       ------------------------------------

 Vector    1  Occ=2.000000D+00  E=-1.407883D+01  Symmetry=a'
              MO Center= -3.3D-01, -1.3D-01, -6.4D-24, r^2= 2.0D-02
   Bfn.  Coefficient  Atom+Function         Bfn.  Coefficient  Atom+Function  
  ----- ------------  ---------------      ----- ------------  ---------------
     1      0.993864  1 N  s                  2      0.025050  1 N  s          

 Vector    2  Occ=2.000000D+00  E=-6.138546D-01  Symmetry=a'
              MO Center= -2.3D-01, -1.3D-01, -5.2D-17, r^2= 6.7D-01
   Bfn.  Coefficient  Atom+Function         Bfn.  Coefficient  Atom+Function  
  ----- ------------  ---------------      ----- ------------  ---------------
     2      0.989461  1 N  s                  1     -0.257410  1 N  s          
     6      0.118786  2 H  s                  8      0.059776  4 H  s          
     3      0.049679  1 N  px         

 Vector    3  Occ=2.000000D+00  E=-2.242206D-01  Symmetry=a'
              MO Center=  5.0D-01, -1.0D-02,  7.9D-18, r^2= 2.1D+00
   Bfn.  Coefficient  Atom+Function         Bfn.  Coefficient  Atom+Function  
  ----- ------------  ---------------      ----- ------------  ---------------
     6      0.635975  2 H  s                  3      0.516674  1 N  px         
     8      0.309099  4 H  s                  2     -0.298443  1 N  s          
     7      0.220662  3 H  s                  1      0.066265  1 N  s          
     4      0.030603  1 N  py         

 Vector    4  Occ=2.000000D+00  E=-1.804392D-01  Symmetry=a'
              MO Center=  3.2D-01,  3.4D-01, -2.3D-17, r^2= 4.8D+00
   Bfn.  Coefficient  Atom+Function         Bfn.  Coefficient  Atom+Function  
  ----- ------------  ---------------      ----- ------------  ---------------
     7      0.636829  3 H  s                  8     -0.595715  4 H  s          
     4      0.415310  1 N  py                 6      0.101065  2 H  s          
     3     -0.043663  1 N  px                 2      0.032781  1 N  s          

 Vector    5  Occ=2.000000D+00  E=-1.041784D-01  Symmetry=a"
              MO Center= -3.3D-01, -1.3D-01, -6.8D-15, r^2= 5.5D-01
   Bfn.  Coefficient  Atom+Function         Bfn.  Coefficient  Atom+Function  
  ----- ------------  ---------------      ----- ------------  ---------------
     5      1.000000  1 N  pz         

 Vector    6  Occ=0.000000D+00  E=-1.206470D-01  Symmetry=a'
              MO Center=  3.9D-01,  8.4D-01,  6.9D-15, r^2= 4.6D+00
   Bfn.  Coefficient  Atom+Function         Bfn.  Coefficient  Atom+Function  
  ----- ------------  ---------------      ----- ------------  ---------------
     7      0.728367  3 H  s                  8      0.515616  4 H  s          
     6     -0.293417  2 H  s                  4     -0.279111  1 N  py         
     3     -0.217511  1 N  px         

 Vector    7  Occ=0.000000D+00  E=-5.036177D-03  Symmetry=a'
              MO Center= -4.0D-02, -5.7D-01,  2.6D-19, r^2= 1.6D+00
   Bfn.  Coefficient  Atom+Function         Bfn.  Coefficient  Atom+Function  
  ----- ------------  ---------------      ----- ------------  ---------------
     4      0.844397  1 N  py                 8      0.545690  4 H  s          
     3     -0.266759  1 N  px                 7     -0.121185  3 H  s          
     2     -0.045644  1 N  s                  6     -0.040904  2 H  s          

 Vector    8  Occ=0.000000D+00  E= 6.922629D-02  Symmetry=a'
              MO Center=  4.1D-01,  4.9D-02, -3.8D-18, r^2= 1.3D+00
   Bfn.  Coefficient  Atom+Function         Bfn.  Coefficient  Atom+Function  
  ----- ------------  ---------------      ----- ------------  ---------------
     3      0.805880  1 N  px                 6     -0.749304  2 H  s          
     4      0.213821  1 N  py                 2      0.164802  1 N  s          
     7      0.050536  3 H  s                  8      0.036811  4 H  s          
     1     -0.032768  1 N  s          


 center of mass
 --------------
 x =  -0.25691843 y =  -0.10059094 z =   0.00000000

 moments of inertia (a.u.)
 ------------------
          39.364240930869           0.000000000000           0.000000000000
           0.000000000000          13.020885570377           0.000000000000
           0.000000000000           0.000000000000          52.385126501246

     Multipole analysis of the density
     ---------------------------------

     L   x y z        total         alpha         beta         nuclear
     -   - - -        -----         -----         ----         -------
     0   0 0 0     -0.000000     -5.000000     -5.000000     10.000000

     1   1 0 0      0.272248      0.136124      0.136124     -0.000000
     1   0 1 0      0.224230      0.112115      0.112115      0.000000
     1   0 0 1      0.000000      0.000000      0.000000      0.000000

     2   2 0 0     -4.950375     -8.126342     -8.126342     11.302309
     2   1 1 0     -0.076020      0.278635      0.278635     -0.633290
     2   1 0 1      0.000000      0.000000      0.000000      0.000000
     2   0 2 0     -2.414706    -20.612681    -20.612681     38.810656
     2   0 1 1      0.000000      0.000000      0.000000      0.000000
     2   0 0 2     -6.219046     -3.109523     -3.109523      0.000000


 Parallel integral file used       4 records with       0 large values


 Task  times  cpu:        2.2s     wall:        2.9s


                                NWChem Input Module
                                -------------------


 Summary of allocated global arrays
-----------------------------------
  No active global arrays



                         GA Statistics for process    0
                         ------------------------------

       create   destroy   get      put      acc     scatter   gather  read&inc
calls: 1859     1778     1.52e+04 2251     8769        0        0      968     
number of processes/call 0.00e+00 0.00e+00 0.00e+00 0.00e+00 0.00e+00
bytes total:             1.92e+06 8.07e+05 7.89e+05 0.00e+00 0.00e+00 7.74e+03
bytes remote:            1.82e+05 9.90e+04 1.24e+05 0.00e+00 0.00e+00 0.00e+00
Max memory consumed for GA by this process: 18944 bytes

MA_summarize_allocated_blocks: starting scan ...
MA_summarize_allocated_blocks: scan completed: 0 heap blocks, 0 stack blocks
MA usage statistics:

	allocation statistics:
					      heap	     stack
					      ----	     -----
	current number of blocks	         0	         0
	maximum number of blocks	        22	        57
	current total bytes		         0	         0
	maximum total bytes		   1940672	  22510264
	maximum total K-bytes		      1941	     22511
	maximum total M-bytes		         2	        23


                                     CITATION
                                     --------
                Please cite the following reference when publishing
                           results obtained with NWChem:

          E. Aprà, E. J. Bylaska, W. A. de Jong, N. Govind, K. Kowalski,
       T. P. Straatsma, M. Valiev, H. J. J. van Dam, Y. Alexeev, J. Anchell,
       V. Anisimov, F. W. Aquino, R. Atta-Fynn, J. Autschbach, N. P. Bauman,
     J. C. Becca, D. E. Bernholdt, K. Bhaskaran-Nair, S. Bogatko, P. Borowski,
        J. Boschen, J. Brabec, A. Bruner, E. Cauët, Y. Chen, G. N. Chuev,
      C. J. Cramer, J. Daily, M. J. O. Deegan, T. H. Dunning Jr., M. Dupuis,
   K. G. Dyall, G. I. Fann, S. A. Fischer, A. Fonari, H. Früchtl, L. Gagliardi,
      J. Garza, N. Gawande, S. Ghosh, K. Glaesemann, A. W. Götz, J. Hammond,
       V. Helms, E. D. Hermes, K. Hirao, S. Hirata, M. Jacquelin, L. Jensen,
   B. G. Johnson, H. Jónsson, R. A. Kendall, M. Klemm, R. Kobayashi, V. Konkov,
      S. Krishnamoorthy, M. Krishnan, Z. Lin, R. D. Lins, R. J. Littlefield,
      A. J. Logsdail, K. Lopata, W. Ma, A. V. Marenich, J. Martin del Campo,
   D. Mejia-Rodriguez, J. E. Moore, J. M. Mullin, T. Nakajima, D. R. Nascimento,
    J. A. Nichols, P. J. Nichols, J. Nieplocha, A. Otero-de-la-Roza, B. Palmer,
    A. Panyala, T. Pirojsirikul, B. Peng, R. Peverati, J. Pittner, L. Pollack,
   R. M. Richard, P. Sadayappan, G. C. Schatz, W. A. Shelton, D. W. Silverstein,
   D. M. A. Smith, T. A. Soares, D. Song, M. Swart, H. L. Taylor, G. S. Thomas,
            V. Tipparaju, D. G. Truhlar, K. Tsemekhman, T. Van Voorhis,
     Á. Vázquez-Mayagoitia, P. Verma, O. Villa, A. Vishnu, K. D. Vogiatzis,
        D. Wang, J. H. Weare, M. J. Williamson, T. L. Windus, K. Woliński,
        A. T. Wong, Q. Wu, C. Yang, Q. Yu, M. Zacharias, Z. Zhang, Y. Zhao,
                                and R. J. Harrison
                        "NWChem: Past, present, and future
                         J. Chem. Phys. 152, 184102 (2020)
                               doi:10.1063/5.0004997

                                      AUTHORS
                                      -------
     E. Apra, E. J. Bylaska, N. Govind, K. Kowalski, M. Valiev, W. A. de Jong,
      T. P. Straatsma, H. J. J. van Dam, D. Wang, T. L. Windus, N. P. Bauman,
       A. Panyala, J. Hammond, J. Autschbach, K. Bhaskaran-Nair, J. Brabec,
    K. Lopata, S. A. Fischer, S. Krishnamoorthy, M. Jacquelin, W. Ma, M. Klemm,
       O. Villa, Y. Chen, V. Anisimov, F. Aquino, S. Hirata, M. T. Hackler,
           Eric Hermes, L. Jensen, J. E. Moore, J. C. Becca, V. Konjkov,
            D. Mejia-Rodriguez, T. Risthaus, M. Malagoli, A. Marenich,
   A. Otero-de-la-Roza, J. Mullin, P. Nichols, R. Peverati, J. Pittner, Y. Zhao,
        P.-D. Fan, A. Fonari, M. J. Williamson, R. J. Harrison, J. R. Rehr,
      M. Dupuis, D. Silverstein, D. M. A. Smith, J. Nieplocha, V. Tipparaju,
      M. Krishnan, B. E. Van Kuiken, A. Vazquez-Mayagoitia, M. Swart, Q. Wu,
   T. Van Voorhis, A. A. Auer, M. Nooijen, L. D. Crosby, E. Brown, G. Cisneros,
     G. I. Fann, H. Fruchtl, J. Garza, K. Hirao, R. A. Kendall, J. A. Nichols,
       K. Tsemekhman, K. Wolinski, J. Anchell, D. E. Bernholdt, P. Borowski,
       T. Clark, D. Clerc, H. Dachsel, M. J. O. Deegan, K. Dyall, D. Elwood,
      E. Glendening, M. Gutowski, A. C. Hess, J. Jaffe, B. G. Johnson, J. Ju,
        R. Kobayashi, R. Kutteh, Z. Lin, R. Littlefield, X. Long, B. Meng,
      T. Nakajima, S. Niu, L. Pollack, M. Rosing, K. Glaesemann, G. Sandrone,
      M. Stave, H. Taylor, G. Thomas, J. H. van Lenthe, A. T. Wong, Z. Zhang.

 Total times  cpu:        2.3s     wall:        3.1s
