4
Properties=species:S:1:pos:R:3:forces:R:3 energy=-1530.0725508122268 free_energy=-1530.0725508122268 dipole="0.12878691608934315 -0.31222407942245645 -0.18763353861288454" pbc="F F F"
N       -1.70773162       0.04503966      -0.00562454       0.00241684      -0.00853606      -0.00565643
H       -0.68599120       0.05963194       0.00313757      -0.00365097       0.00179977       0.00113129
H       -2.05634874      -0.78791234       0.47285447       0.00046280       0.00488510      -0.00046280
H       -2.05635490       0.07659802      -0.96571599       0.00071991       0.00185119       0.00498794
