4
Properties=species:S:1:pos:R:3:forces:R:3 energy=-1531.892893459376 free_energy=-1531.892893459376 dipole="0.13900162378485698 -0.33698533945915965 -0.20250235987530735" pbc="F F F"
N       -1.74768477       0.14188016       0.05256015       0.00051422      -0.00179977      -0.00118271
H       -0.70042793       0.01894043      -0.02132294       0.00179977       0.00113129       0.00066849
H       -2.02915002      -0.80283980       0.43414644      -0.00118271      -0.00056564       0.00164551
H       -2.02915695       0.03537142      -0.96073315      -0.00113129       0.00123413      -0.00118271
