 argument  1 = nwchem.nwi
                                         
                                         


             Northwest Computational Chemistry Package (NWChem) 7.0.2
             --------------------------------------------------------


                    Environmental Molecular Sciences Laboratory
                       Pacific Northwest National Laboratory
                                Richland, WA 99352

                              Copyright (c) 1994-2020
                       Pacific Northwest National Laboratory
                            Battelle Memorial Institute

             NWChem is an open-source computational chemistry package
                        distributed under the terms of the
                      Educational Community License (ECL) 2.0
             A copy of the license is included with this distribution
                              in the LICENSE.TXT file

                                  ACKNOWLEDGMENT
                                  --------------

            This software and its documentation were developed at the
            EMSL at Pacific Northwest National Laboratory, a multiprogram
            national laboratory, operated for the U.S. Department of Energy
            by Battelle under Contract Number DE-AC05-76RL01830. Support
            for this work was provided by the Department of Energy Office
            of Biological and Environmental Research, Office of Basic
            Energy Sciences, and the Office of Advanced Scientific Computing.


           Job information
           ---------------

    hostname        = DESKTOP-M7D5GNM
    program         = nwchem
    date            = Mon Oct 21 15:31:35 2024

    compiled        = Sat_Apr_09_17:12:10_2022
    source          = /build/nwchem-f1f4gx/nwchem-7.0.2/build-openmpi
    nwchem branch   = 7.0.2
    nwchem revision = N/A
    ga revision     = 5.8.1
    use scalapack   = T
    input           = nwchem.nwi
    prefix          = nwchem.
    data base       = /home/ruslan/work/Master-s-thesis/NH3_molecule/ase-nwchem/nwchem/nwchem.db
    status          = startup
    nproc           =        1
    time left       =     -1s



           Memory information
           ------------------

    heap     =   13107200 doubles =    100.0 Mbytes
    stack    =   13107197 doubles =    100.0 Mbytes
    global   =   26214400 doubles =    200.0 Mbytes (distinct from heap & stack)
    total    =   52428797 doubles =    400.0 Mbytes
    verify   = yes
    hardfail = no 


           Directory information
           ---------------------

  0 permanent = /home/ruslan/work/Master-s-thesis/NH3_molecule/ase-nwchem/nwchem
  0 scratch   = /home/ruslan/work/Master-s-thesis/NH3_molecule/ase-nwchem/nwchem




                                NWChem Input Module
                                -------------------


                                      nwchem
                                      ------

 Scaling coordinates for geometry "geometry" by  1.889725989
 (inverse scale =  0.529177249)



                             Geometry "geometry" -> ""
                             -------------------------

 Output coordinates in angstroms (scale by  1.889725989 to convert to a.u.)

  No.       Tag          Charge          X              Y              Z
 ---- ---------------- ---------- -------------- -------------- --------------
    1 N                    7.0000    -1.70773162     0.04503966    -0.00562454
    2 H                    1.0000    -0.68599120     0.05963194     0.00313757
    3 H                    1.0000    -2.05634874    -0.78791234     0.47285447
    4 H                    1.0000    -2.05635490     0.07659802    -0.96571599

      Atomic Mass 
      ----------- 

      N                 14.003070
      H                  1.007825


 Effective nuclear repulsion energy (a.u.)      11.8204592932

            Nuclear Dipole moment (a.u.) 
            ----------------------------
        X                 Y               Z
 ---------------- ---------------- ----------------
   -31.6582320425    -0.6357128120    -0.9998459205


            XYZ format geometry
            -------------------
     4
 geometry
 N                    -1.70773162     0.04503966    -0.00562454
 H                    -0.68599120     0.05963194     0.00313757
 H                    -2.05634874    -0.78791234     0.47285447
 H                    -2.05635490     0.07659802    -0.96571599

 ==============================================================================
                                internuclear distances
 ------------------------------------------------------------------------------
       center one      |      center two      | atomic units |  angstroms
 ------------------------------------------------------------------------------
    2 H                |   1 N                |     1.93108  |     1.02188
    3 H                |   1 N                |     1.93112  |     1.02190
    4 H                |   1 N                |     1.93114  |     1.02191
 ------------------------------------------------------------------------------
                         number of included internuclear distances:          3
 ==============================================================================



 ==============================================================================
                                 internuclear angles
 ------------------------------------------------------------------------------
        center 1       |       center 2       |       center 3       |  degrees
 ------------------------------------------------------------------------------
    2 H                |   1 N                |   3 H                |   110.41
    2 H                |   1 N                |   4 H                |   110.41
    3 H                |   1 N                |   4 H                |   110.41
 ------------------------------------------------------------------------------
                            number of included internuclear angles:          3
 ==============================================================================




 xc [acm],
 [b3lyp     ],
 [beckehandh],
 [HFexch    ],
 [becke88   ],
 [lyp       ],
 [perdew81  ],
 [perdew86  ],
 [perdew91  ],
 [pw91lda   ],
 [slater    ],
 [vwn_1     ],
 [vwn_2     ],
 [vwn_3     ],
 [vwn_4     ],
 [vwn_5     ],
 [vwn_1_rpa ],
 [hcth      ],
 [becke97   ],
 [becke97-1 ],
 [cpbe96    ],
 [xpbe96    ],
 [gill96    ],
 [xperdew91 ],
 [xhcth     ],
 [xbecke97  ],
 [xbecke97-1],
 [chcth     ],
 [cbecke97  ],
 [cbecke97-1],
 [hcth120   ],
 [hcth147   ],
 [becke98   ],
 [pbe0      ],
 [becke97gga],
 [hcth407   ],
 [hcthp14   ],
 [optx      ],
 [optc      ],
 [becke97-2 ],
 [mpw91     ],
 [ft97      ],
 [xft97     ],
 [cft97     ],
 [xpkzb99   ],
 [mpw1k     ],
 [cpkzb99   ],
 [hcth407p  ],
 [xtpss03   ],
 [ctpss03   ],
 [xctpssh   ],
 [becke97-3 ],
 [op        ],
 [bop       ],
 [pbeop     ],
 [rpbe      ],
 [revpbe    ],
 [bc95      ],
 [mpw1b95   ],
 [mpwb1k    ],
 [b1b95     ],
 [bb1k      ],
 [pw6b95    ],
 [pwb6k     ],
 [m05       ],
 [m05-2x    ],
 [xpw6b95   ],
 [cpw6b95   ],
 [xpwb6k    ],
 [cpwb6k    ],
 [xm05      ],
 [cm05      ],
 [xm05-2x   ],
 [cm05-2x   ],
 [vs98      ],
 [xvs98     ],
 [cvs98     ],
 [m06-L     ],
 [xm06-L    ],
 [cm06-L    ],
 [m06-hf    ],
 [xm06-hf   ],
 [cm06-hf   ],
 [m06       ],
 [revm06    ],
 [revm06-L  ],
 [xm06      ],
 [cm06      ],
 [m06-2x    ],
 [xm06-2x   ],
 [cm06-2x   ],
 [m08-hx    ],
 [xm08-hx   ],
 [cm08-hx   ],
 [m08-so    ],
 [xm08-so   ],
 [cm08-so   ],
 [m11       ],
 [xm11      ],
 [cm11      ],
 [m11-l     ],
 [xm11-l    ],
 [cm11-l    ],
 [sogga     ],
 [xsogga    ],
 [csogga    ],
 [sogga11   ],
 [xsogga11  ],
 [csogga11  ],
 [sogga11-x ],
 [xsogga11-x],
 [csogga11-x],
 [n12       ],
 [xn12      ],
 [cn12      ],
 [cn12-sx   ],
 [xbnl07    ],
 [becke97-d ],
 [xcamb88   ],
 [xcampbe96 ],
 [mp2       ],
 [b2plyp    ],
 [xcamlsd   ],
 [xwpbe     ],
 [ssb-d     ],
 [kt1       ],
 [kt2       ],
 [bhlyp     ],
 [b3p86     ],
 [b3pw91    ],
 [pbe96     ],
 [dldf      ],
 [srhfexch  ],
 [hse03     ],
 [s12g      ],
 [s12h      ],
 [cam-s12g  ],
 [cam-s12h  ],
 [becke86b  ],
 [xperdew86 ],
 [xmvs15    ],
 [cvpbe09   ],
 [mvs       ],
 [hle16     ],
 [scan      ],
 [scanl     ],
 [scan0     ],
 [lb94      ],
 [rscan     ],
 [xncap     ],
 [ncap      ],
 ------------------------------------------------------------------------
 xc_input: invalid format                   0
 ------------------------------------------------------------------------
 ------------------------------------------------------------------------
  current input line : 
    22:   xc PBE
 ------------------------------------------------------------------------
 ------------------------------------------------------------------------
 There is an error in the input file
 ------------------------------------------------------------------------
 For more information see the NWChem manual at https://github.com/nwchemgit/nwchem/wiki


 For further details see manual section:                                                                                                                                                                                                                                                                
