 argument  1 = h2o_b3lyp_6-31g_geopt.nw
                                         
                                         


             Northwest Computational Chemistry Package (NWChem) 7.0.2
             --------------------------------------------------------


                    Environmental Molecular Sciences Laboratory
                       Pacific Northwest National Laboratory
                                Richland, WA 99352

                              Copyright (c) 1994-2020
                       Pacific Northwest National Laboratory
                            Battelle Memorial Institute

             NWChem is an open-source computational chemistry package
                        distributed under the terms of the
                      Educational Community License (ECL) 2.0
             A copy of the license is included with this distribution
                              in the LICENSE.TXT file

                                  ACKNOWLEDGMENT
                                  --------------

            This software and its documentation were developed at the
            EMSL at Pacific Northwest National Laboratory, a multiprogram
            national laboratory, operated for the U.S. Department of Energy
            by Battelle under Contract Number DE-AC05-76RL01830. Support
            for this work was provided by the Department of Energy Office
            of Biological and Environmental Research, Office of Basic
            Energy Sciences, and the Office of Advanced Scientific Computing.


           Job information
           ---------------

    hostname        = DESKTOP-M7D5GNM
    program         = /usr/bin/nwchem.openmpi
    date            = Thu Oct 10 15:26:13 2024

    compiled        = Sat_Apr_09_17:12:10_2022
    source          = /build/nwchem-f1f4gx/nwchem-7.0.2/build-openmpi
    nwchem branch   = 7.0.2
    nwchem revision = N/A
    ga revision     = 5.8.1
    use scalapack   = T
    input           = h2o_b3lyp_6-31g_geopt.nw
    prefix          = h2o.
    data base       = ./h2o.db
    status          = startup
    nproc           =        4
    time left       =     -1s



           Memory information
           ------------------

    heap     =   13107198 doubles =    100.0 Mbytes
    stack    =   13107195 doubles =    100.0 Mbytes
    global   =   26214400 doubles =    200.0 Mbytes (distinct from heap & stack)
    total    =   52428793 doubles =    400.0 Mbytes
    verify   = yes
    hardfail = no 


           Directory information
           ---------------------

  0 permanent = .
  0 scratch   = .




                                NWChem Input Module
                                -------------------


                             Water in 6-31g basis set
                             ------------------------
 C2V symmetry detected


                             Geometry "geometry" -> ""
                             -------------------------

 Output coordinates in a.u. (scale by  1.000000000 to convert to a.u.)

  No.       Tag          Charge          X              Y              Z
 ---- ---------------- ---------- -------------- -------------- --------------
    1 O                    8.0000     0.00000000     0.00000000     0.22143053
    2 H                    1.0000    -1.43042809     0.00000000    -0.88572213
    3 H                    1.0000     1.43042809     0.00000000    -0.88572213

      Atomic Mass 
      ----------- 

      O                 15.994910
      H                  1.007825


 Effective nuclear repulsion energy (a.u.)       9.1949809303

            Nuclear Dipole moment (a.u.) 
            ----------------------------
        X                 Y               Z
 ---------------- ---------------- ----------------
     0.0000000000     0.0000000000     0.0000000000

      Symmetry information
      --------------------

 Group name             C2v       
 Group number             16
 Group order               4
 No. of unique centers     2

      Symmetry unique atoms

     1    2


            XYZ format geometry
            -------------------
     3
 geometry
 O                     0.00000000     0.00000000     0.11717600
 H                    -0.75695000     0.00000000    -0.46870400
 H                     0.75695000     0.00000000    -0.46870400

 ==============================================================================
                                internuclear distances
 ------------------------------------------------------------------------------
       center one      |      center two      | atomic units |       a.u.
 ------------------------------------------------------------------------------
    2 H                |   1 O                |     1.80884  |     1.80884
    3 H                |   1 O                |     1.80884  |     1.80884
 ------------------------------------------------------------------------------
                         number of included internuclear distances:          2
 ==============================================================================



 ==============================================================================
                                 internuclear angles
 ------------------------------------------------------------------------------
        center 1       |       center 2       |       center 3       |  degrees
 ------------------------------------------------------------------------------
    2 H                |   1 O                |   3 H                |   104.52
 ------------------------------------------------------------------------------
                            number of included internuclear angles:          1
 ==============================================================================



                      Basis "ao basis" -> "" (cartesian)
                      -----
  H (Hydrogen)
  ------------
            Exponent  Coefficients 
       -------------- ---------------------------------------------------------
  1 S  1.87311370E+01  0.033495
  1 S  2.82539370E+00  0.234727
  1 S  6.40121700E-01  0.813757

  2 S  1.61277800E-01  1.000000

  O (Oxygen)
  ----------
            Exponent  Coefficients 
       -------------- ---------------------------------------------------------
  1 S  5.48467170E+03  0.001831
  1 S  8.25234950E+02  0.013950
  1 S  1.88046960E+02  0.068445
  1 S  5.29645000E+01  0.232714
  1 S  1.68975700E+01  0.470193
  1 S  5.79963530E+00  0.358521

  2 S  1.55396160E+01 -0.110778
  2 S  3.59993360E+00 -0.148026
  2 S  1.01376180E+00  1.130767

  3 P  1.55396160E+01  0.070874
  3 P  3.59993360E+00  0.339753
  3 P  1.01376180E+00  0.727159

  4 S  2.70005800E-01  1.000000

  5 P  2.70005800E-01  1.000000



 Summary of "ao basis" -> "" (cartesian)
 ------------------------------------------------------------------------------
       Tag                 Description            Shells   Functions and Types
 ---------------- ------------------------------  ------  ---------------------
 H                           6-31g                   2        2   2s
 O                           6-31g                   5        9   3s2p




                           NWChem Geometry Optimization
                           ----------------------------




                             Water in 6-31g basis set


 maximum gradient threshold         (gmax) =   0.000450
 rms gradient threshold             (grms) =   0.000300
 maximum cartesian step threshold   (xmax) =   0.001800
 rms cartesian step threshold       (xrms) =   0.001200
 fixed trust radius                (trust) =   0.300000
 maximum step size to saddle      (sadstp) =   0.100000
 energy precision                  (eprec) =   5.0D-06
 maximum number of steps          (nptopt) =   20
 initial hessian option           (inhess) =    0
 line search option               (linopt) =    1
 hessian update option            (modupd) =    1
 saddle point option              (modsad) =    0
 initial eigen-mode to follow     (moddir) =    0
 initial variable to follow       (vardir) =    0
 follow first negative mode     (firstneg) =    T
 apply conjugacy                    (opcg) =    F
 source of zmatrix                         =           


          -------------------
          Energy Minimization
          -------------------


 Using diagonal initial Hessian 

          --------
          Step   0
          --------


                         Geometry "geometry" -> "geometry"
                         ---------------------------------

 Output coordinates in a.u. (scale by  1.000000000 to convert to a.u.)

  No.       Tag          Charge          X              Y              Z
 ---- ---------------- ---------- -------------- -------------- --------------
    1 O                    8.0000     0.00000000     0.00000000     0.22143053
    2 H                    1.0000    -1.43042809     0.00000000    -0.88572213
    3 H                    1.0000     1.43042809     0.00000000    -0.88572213

      Atomic Mass 
      ----------- 

      O                 15.994910
      H                  1.007825


 Effective nuclear repulsion energy (a.u.)       9.1949809303

            Nuclear Dipole moment (a.u.) 
            ----------------------------
        X                 Y               Z
 ---------------- ---------------- ----------------
     0.0000000000     0.0000000000     0.0000000000

      Symmetry information
      --------------------

 Group name             C2v       
 Group number             16
 Group order               4
 No. of unique centers     2

      Symmetry unique atoms

     1    2


                                 NWChem DFT Module
                                 -----------------


                             Water in 6-31g basis set




 Summary of "ao basis" -> "ao basis" (cartesian)
 ------------------------------------------------------------------------------
       Tag                 Description            Shells   Functions and Types
 ---------------- ------------------------------  ------  ---------------------
 H                           6-31g                   2        2   2s
 O                           6-31g                   5        9   3s2p


      Symmetry analysis of basis
      --------------------------

        a1          7
        a2          0
        b1          4
        b2          2

  Caching 1-el integrals 

            General Information
            -------------------
          SCF calculation type: DFT
          Wavefunction type:  closed shell.
          No. of atoms     :     3
          No. of electrons :    10
           Alpha electrons :     5
            Beta electrons :     5
          Charge           :     0
          Spin multiplicity:     1
          Use of symmetry is: on ; symmetry adaption is: on 
          Maximum number of iterations:  30
          AO basis - number of functions:    13
                     number of shells:     9
          Convergence on energy requested:  1.00D-06
          Convergence on density requested:  1.00D-05
          Convergence on gradient requested:  5.00D-04

              XC Information
              --------------
                         B3LYP Method XC Potential
                     Hartree-Fock (Exact) Exchange  0.200          
                        Slater Exchange Functional  0.800 local    
                    Becke 1988 Exchange Functional  0.720 non-local
              Lee-Yang-Parr Correlation Functional  0.810          
                  VWN I RPA Correlation Functional  0.190 local    

             Grid Information
             ----------------
          Grid used for XC integration:  medium    
          Radial quadrature: Mura-Knowles        
          Angular quadrature: Lebedev. 
          Tag              B.-S. Rad. Rad. Pts. Rad. Cut. Ang. Pts.
          ---              ---------- --------- --------- ---------
          O                   0.60       49           5.0       434
          H                   0.35       45           6.0       434
          Grid pruning is: on 
          Number of quadrature shells:    94
          Spatial weights used:  Erf1

          Convergence Information
          -----------------------
          Convergence aids based upon iterative change in 
          total energy or number of iterations. 
          Levelshifting, if invoked, occurs when the 
          HOMO/LUMO gap drops below (HL_TOL):  1.00D-02
          DIIS, if invoked, will attempt to extrapolate 
          using up to (NFOCK): 10 stored Fock matrices.

                    Damping( 0%)  Levelshifting(0.5)       DIIS
                  --------------- ------------------- ---------------
          dE  on:    start            ASAP                start   
          dE off:    2 iters         30 iters            30 iters 


      Screening Tolerance Information
      -------------------------------
          Density screening/tol_rho:  1.00D-10
          AO Gaussian exp screening on grid/accAOfunc:  14
          CD Gaussian exp screening on grid/accCDfunc:  20
          XC Gaussian exp screening on grid/accXCfunc:  20
          Schwarz screening/accCoul:  1.00D-08


      Superposition of Atomic Density Guess
      -------------------------------------

 Sum of atomic energies:         -75.75081731

      Non-variational initial energy
      ------------------------------

 Total energy =     -75.919497
 1-e energy   =    -121.734217
 2-e energy   =      36.619739
 HOMO         =      -0.469044
 LUMO         =       0.116432


      Symmetry analysis of molecular orbitals - initial
      -------------------------------------------------

  Numbering of irreducible representations: 

     1 a1          2 a2          3 b1          4 b2      

  Orbital symmetries:

     1 a1          2 a1          3 b1          4 a1          5 b2      
     6 a1          7 b1          8 b1          9 b2         10 a1      
    11 a1         12 b1         13 a1      

   Time after variat. SCF:      0.2
   Time prior to 1st pass:      0.2

 #quartets = 6.670D+02 #integrals = 1.513D+03 #direct =  0.0% #cached =100.0%


 Integral file          = ./h2o.aoints.0
 Record size in doubles =  65536        No. of integs per rec  =  43688
 Max. records in memory =      2        Max. records in file   = 463303
 No. of bits per label  =      8        No. of bits per value  =     64


File balance: exchanges=     0  moved=     0  time=   0.0


 Grid_pts file          = ./h2o.gridpts.0
 Record size in doubles =  12289        No. of grid_pts per rec  =   3070
 Max. records in memory =      5        Max. recs in file   =   2470751


           Memory utilization after 1st SCF pass: 
           Heap Space remaining (MW):       12.91            12913366
          Stack Space remaining (MW):       13.11            13106964

   convergence    iter        energy       DeltaE   RMS-Dens  Diis-err    time
 ---------------- ----- ----------------- --------- --------- ---------  ------
 d= 0,ls=0.0,diis     1    -76.3458783279 -8.55D+01  5.56D-02  3.45D-01     0.3
 d= 0,ls=0.0,diis     2    -76.3425695349  3.31D-03  2.80D-02  4.61D-01     0.5
 d= 0,ls=0.0,diis     3    -76.3842785640 -4.17D-02  2.86D-03  7.11D-03     0.5
 d= 0,ls=0.0,diis     4    -76.3849159413 -6.37D-04  1.12D-04  3.87D-06     0.5
 d= 0,ls=0.0,diis     5    -76.3849164382 -4.97D-07  1.18D-05  8.45D-09     0.6
 d= 0,ls=0.0,diis     6    -76.3849164404 -2.16D-09  1.02D-06  9.84D-11     0.6


         Total DFT energy =      -76.384916440376
      One electron energy =     -123.060527324234
           Coulomb energy =       46.842839697608
    Exchange-Corr. energy =       -9.362209744025
 Nuclear repulsion energy =        9.194980930276

 Numeric. integr. density =       10.000001346292

     Total iterative time =      0.4s



                  Occupations of the irreducible representations
                  ----------------------------------------------

                     irrep           alpha         beta
                     --------     --------     --------
                     a1                3.0          3.0
                     a2                0.0          0.0
                     b1                1.0          1.0
                     b2                1.0          1.0


                       DFT Final Molecular Orbital Analysis
                       ------------------------------------

 Vector    1  Occ=2.000000D+00  E=-1.913298D+01  Symmetry=a1
              MO Center=  7.5D-19,  1.8D-26,  1.2D-01, r^2= 1.5D-02
   Bfn.  Coefficient  Atom+Function         Bfn.  Coefficient  Atom+Function  
  ----- ------------  ---------------      ----- ------------  ---------------
     1      0.995036  1 O  s                  2      0.027939  1 O  s          

 Vector    2  Occ=2.000000D+00  E=-1.019292D+00  Symmetry=a1
              MO Center=  3.8D-16,  4.5D-17, -1.1D-01, r^2= 5.0D-01
   Bfn.  Coefficient  Atom+Function         Bfn.  Coefficient  Atom+Function  
  ----- ------------  ---------------      ----- ------------  ---------------
     2      0.463672  1 O  s                  6      0.447390  1 O  s          
     1     -0.209228  1 O  s                  5     -0.153058  1 O  pz         
    10      0.151900  2 H  s                 12      0.151900  3 H  s          
     9     -0.069222  1 O  pz         

 Vector    3  Occ=2.000000D+00  E=-5.309647D-01  Symmetry=b1
              MO Center= -4.2D-16, -5.5D-32, -1.1D-01, r^2= 7.9D-01
   Bfn.  Coefficient  Atom+Function         Bfn.  Coefficient  Atom+Function  
  ----- ------------  ---------------      ----- ------------  ---------------
     3      0.516837  1 O  px                10     -0.267746  2 H  s          
    12      0.267746  3 H  s                  7      0.233459  1 O  px         
    11     -0.149281  2 H  s                 13      0.149281  3 H  s          

 Vector    4  Occ=2.000000D+00  E=-3.564451D-01  Symmetry=a1
              MO Center= -8.2D-17,  6.5D-17,  2.4D-01, r^2= 6.7D-01
   Bfn.  Coefficient  Atom+Function         Bfn.  Coefficient  Atom+Function  
  ----- ------------  ---------------      ----- ------------  ---------------
     5      0.545418  1 O  pz                 9      0.376490  1 O  pz         
     6      0.373796  1 O  s                  2      0.201174  1 O  s          
    10     -0.141819  2 H  s                 12     -0.141819  3 H  s          
    11     -0.103268  2 H  s                 13     -0.103268  3 H  s          
     1     -0.090556  1 O  s          

 Vector    5  Occ=2.000000D+00  E=-2.923535D-01  Symmetry=b2
              MO Center=  9.1D-32, -6.7D-17,  1.2D-01, r^2= 5.9D-01
   Bfn.  Coefficient  Atom+Function         Bfn.  Coefficient  Atom+Function  
  ----- ------------  ---------------      ----- ------------  ---------------
     4      0.646206  1 O  py                 8      0.505040  1 O  py         

 Vector    6  Occ=0.000000D+00  E= 5.756231D-02  Symmetry=a1
              MO Center=  0.0D+00,  3.6D-17, -5.9D-01, r^2= 2.4D+00
   Bfn.  Coefficient  Atom+Function         Bfn.  Coefficient  Atom+Function  
  ----- ------------  ---------------      ----- ------------  ---------------
     6      1.098060  1 O  s                 11     -0.940896  2 H  s          
    13     -0.940896  3 H  s                  9     -0.443621  1 O  pz         
     5     -0.288549  1 O  pz                 2      0.153135  1 O  s          
    10     -0.095915  2 H  s                 12     -0.095915  3 H  s          
     1     -0.088212  1 O  s          

 Vector    7  Occ=0.000000D+00  E= 1.477271D-01  Symmetry=b1
              MO Center=  1.1D-16,  6.2D-33, -5.5D-01, r^2= 2.5D+00
   Bfn.  Coefficient  Atom+Function         Bfn.  Coefficient  Atom+Function  
  ----- ------------  ---------------      ----- ------------  ---------------
    11      1.293431  2 H  s                 13     -1.293431  3 H  s          
     7      0.756898  1 O  px                 3      0.417303  1 O  px         
    10      0.094865  2 H  s                 12     -0.094865  3 H  s          

 Vector    8  Occ=0.000000D+00  E= 8.121456D-01  Symmetry=b1
              MO Center=  5.6D-17, -6.2D-33, -1.9D-01, r^2= 1.7D+00
   Bfn.  Coefficient  Atom+Function         Bfn.  Coefficient  Atom+Function  
  ----- ------------  ---------------      ----- ------------  ---------------
    10      0.975367  2 H  s                 12     -0.975367  3 H  s          
    11     -0.654420  2 H  s                 13      0.654420  3 H  s          
     7      0.548095  1 O  px                 3      0.192117  1 O  px         

 Vector    9  Occ=0.000000D+00  E= 8.789361D-01  Symmetry=a1
              MO Center=  2.8D-17, -3.8D-18, -1.6D-01, r^2= 1.3D+00
   Bfn.  Coefficient  Atom+Function         Bfn.  Coefficient  Atom+Function  
  ----- ------------  ---------------      ----- ------------  ---------------
     5      0.800928  1 O  pz                10      0.691636  2 H  s          
    12      0.691636  3 H  s                 11     -0.585304  2 H  s          
    13     -0.585304  3 H  s                  9     -0.524616  1 O  pz         
     6      0.268873  1 O  s                  2     -0.171641  1 O  s          
     1      0.030281  1 O  s          

 Vector   10  Occ=0.000000D+00  E= 8.891924D-01  Symmetry=b2
              MO Center= -3.9D-40,  5.1D-21,  1.2D-01, r^2= 1.1D+00
   Bfn.  Coefficient  Atom+Function         Bfn.  Coefficient  Atom+Function  
  ----- ------------  ---------------      ----- ------------  ---------------
     8     -1.039702  1 O  py                 4      0.958365  1 O  py         

 Vector   11  Occ=0.000000D+00  E= 9.577265D-01  Symmetry=a1
              MO Center=  1.2D-16,  2.9D-18,  1.0D-01, r^2= 1.4D+00
   Bfn.  Coefficient  Atom+Function         Bfn.  Coefficient  Atom+Function  
  ----- ------------  ---------------      ----- ------------  ---------------
     9      1.103775  1 O  pz                10      0.706787  2 H  s          
    12      0.706787  3 H  s                  5     -0.546564  1 O  pz         
     2     -0.486812  1 O  s                 11     -0.198979  2 H  s          
    13     -0.198979  3 H  s                  6      0.096168  1 O  s          
     1      0.080679  1 O  s          

 Vector   12  Occ=0.000000D+00  E= 1.069177D+00  Symmetry=b1
              MO Center= -1.2D-16,  2.7D-33,  1.1D-01, r^2= 1.5D+00
   Bfn.  Coefficient  Atom+Function         Bfn.  Coefficient  Atom+Function  
  ----- ------------  ---------------      ----- ------------  ---------------
     7      1.663570  1 O  px                 3     -0.986424  1 O  px         
    11      0.937304  2 H  s                 13     -0.937304  3 H  s          

 Vector   13  Occ=0.000000D+00  E= 1.422959D+00  Symmetry=a1
              MO Center=  2.8D-17, -7.8D-17, -2.2D-01, r^2= 1.2D+00
   Bfn.  Coefficient  Atom+Function         Bfn.  Coefficient  Atom+Function  
  ----- ------------  ---------------      ----- ------------  ---------------
     6      2.784803  1 O  s                  2     -1.667713  1 O  s          
     9     -0.868824  1 O  pz                11     -0.627320  2 H  s          
    13     -0.627320  3 H  s                 10     -0.477812  2 H  s          
    12     -0.477812  3 H  s                  5      0.174386  1 O  pz         
     1      0.053567  1 O  s          


 center of mass
 --------------
 x =   0.00000000 y =   0.00000000 z =   0.09752365

 moments of inertia (a.u.)
 ------------------
           2.194243005950           0.000000000000           0.000000000000
           0.000000000000           6.318513896020           0.000000000000
           0.000000000000           0.000000000000           4.124270890070

     Multipole analysis of the density
     ---------------------------------

     L   x y z        total         alpha         beta         nuclear
     -   - - -        -----         -----         ----         -------
     0   0 0 0     -0.000000     -5.000000     -5.000000     10.000000

     1   1 0 0      0.000000      0.000000      0.000000      0.000000
     1   0 1 0     -0.000000     -0.000000     -0.000000      0.000000
     1   0 0 1     -0.968009     -0.484005     -0.484005      0.000000

     2   2 0 0     -3.207320     -3.649784     -3.649784      4.092249
     2   1 1 0     -0.000000     -0.000000     -0.000000      0.000000
     2   1 0 1      0.000000      0.000000      0.000000      0.000000
     2   0 2 0     -5.323604     -2.661802     -2.661802      0.000000
     2   0 1 1      0.000000      0.000000      0.000000      0.000000
     2   0 0 2     -4.573556     -3.267408     -3.267408      1.961259


 Parallel integral file used       4 records with       0 large values


            General Information
            -------------------
          SCF calculation type: DFT
          Wavefunction type:  closed shell.
          No. of atoms     :     3
          No. of electrons :    10
           Alpha electrons :     5
            Beta electrons :     5
          Charge           :     0
          Spin multiplicity:     1
          Use of symmetry is: on ; symmetry adaption is: on 
          Maximum number of iterations:  30
          AO basis - number of functions:    13
                     number of shells:     9
          Convergence on energy requested:  1.00D-06
          Convergence on density requested:  1.00D-05
          Convergence on gradient requested:  5.00D-04

              XC Information
              --------------
                         B3LYP Method XC Potential
                     Hartree-Fock (Exact) Exchange  0.200          
                        Slater Exchange Functional  0.800 local    
                    Becke 1988 Exchange Functional  0.720 non-local
              Lee-Yang-Parr Correlation Functional  0.810          
                  VWN I RPA Correlation Functional  0.190 local    

             Grid Information
             ----------------
          Grid used for XC integration:  medium    
          Radial quadrature: Mura-Knowles        
          Angular quadrature: Lebedev. 
          Tag              B.-S. Rad. Rad. Pts. Rad. Cut. Ang. Pts.
          ---              ---------- --------- --------- ---------
          O                   0.60       49           5.0       434
          H                   0.35       45           6.0       434
          Grid pruning is: on 
          Number of quadrature shells:    94
          Spatial weights used:  Erf1

          Convergence Information
          -----------------------
          Convergence aids based upon iterative change in 
          total energy or number of iterations. 
          Levelshifting, if invoked, occurs when the 
          HOMO/LUMO gap drops below (HL_TOL):  1.00D-02
          DIIS, if invoked, will attempt to extrapolate 
          using up to (NFOCK): 10 stored Fock matrices.

                    Damping( 0%)  Levelshifting(0.5)       DIIS
                  --------------- ------------------- ---------------
          dE  on:    start            ASAP                start   
          dE off:    2 iters         30 iters            30 iters 


      Screening Tolerance Information
      -------------------------------
          Density screening/tol_rho:  1.00D-10
          AO Gaussian exp screening on grid/accAOfunc:  14
          CD Gaussian exp screening on grid/accCDfunc:  20
          XC Gaussian exp screening on grid/accXCfunc:  20
          Schwarz screening/accCoul:  1.00D-08



                            NWChem DFT Gradient Module
                            --------------------------


                             Water in 6-31g basis set



  charge          =   0.00
  wavefunction    = closed shell

  Using symmetry


                         DFT ENERGY GRADIENTS

    atom               coordinates                        gradient
                 x          y          z           x          y          z
   1 O       0.000000   0.000000   0.221431    0.000000   0.000000  -0.013105
   2 H      -1.430428   0.000000  -0.885722    0.021588   0.000000   0.006552
   3 H       1.430428   0.000000  -0.885722   -0.021588   0.000000   0.006552

                 ----------------------------------------
                 |  Time  |  1-e(secs)   |  2-e(secs)   |
                 ----------------------------------------
                 |  CPU   |       0.00   |       0.00   |
                 ----------------------------------------
                 |  WALL  |       0.00   |       0.01   |
                 ----------------------------------------

@ Step       Energy      Delta E   Gmax     Grms     Xrms     Xmax   Walltime
@ ---- ---------------- -------- -------- -------- -------- -------- --------
@    0     -76.38491644  0.0D+00  0.02159  0.01150  0.00000  0.00000      0.6
                                                                    


                                 NWChem DFT Module
                                 -----------------


                             Water in 6-31g basis set




 Summary of "ao basis" -> "ao basis" (cartesian)
 ------------------------------------------------------------------------------
       Tag                 Description            Shells   Functions and Types
 ---------------- ------------------------------  ------  ---------------------
 H                           6-31g                   2        2   2s
 O                           6-31g                   5        9   3s2p


      Symmetry analysis of basis
      --------------------------

        a1          7
        a2          0
        b1          4
        b2          2

  Caching 1-el integrals 

            General Information
            -------------------
          SCF calculation type: DFT
          Wavefunction type:  closed shell.
          No. of atoms     :     3
          No. of electrons :    10
           Alpha electrons :     5
            Beta electrons :     5
          Charge           :     0
          Spin multiplicity:     1
          Use of symmetry is: on ; symmetry adaption is: on 
          Maximum number of iterations:  30
          AO basis - number of functions:    13
                     number of shells:     9
          Convergence on energy requested:  1.00D-06
          Convergence on density requested:  1.00D-05
          Convergence on gradient requested:  5.00D-04

              XC Information
              --------------
                         B3LYP Method XC Potential
                     Hartree-Fock (Exact) Exchange  0.200          
                        Slater Exchange Functional  0.800 local    
                    Becke 1988 Exchange Functional  0.720 non-local
              Lee-Yang-Parr Correlation Functional  0.810          
                  VWN I RPA Correlation Functional  0.190 local    

             Grid Information
             ----------------
          Grid used for XC integration:  medium    
          Radial quadrature: Mura-Knowles        
          Angular quadrature: Lebedev. 
          Tag              B.-S. Rad. Rad. Pts. Rad. Cut. Ang. Pts.
          ---              ---------- --------- --------- ---------
          O                   0.60       49           5.0       434
          H                   0.35       45           6.0       434
          Grid pruning is: on 
          Number of quadrature shells:    94
          Spatial weights used:  Erf1

          Convergence Information
          -----------------------
          Convergence aids based upon iterative change in 
          total energy or number of iterations. 
          Levelshifting, if invoked, occurs when the 
          HOMO/LUMO gap drops below (HL_TOL):  1.00D-02
          DIIS, if invoked, will attempt to extrapolate 
          using up to (NFOCK): 10 stored Fock matrices.

                    Damping( 0%)  Levelshifting(0.5)       DIIS
                  --------------- ------------------- ---------------
          dE  on:    start            ASAP                start   
          dE off:    2 iters         30 iters            30 iters 


      Screening Tolerance Information
      -------------------------------
          Density screening/tol_rho:  1.00D-10
          AO Gaussian exp screening on grid/accAOfunc:  14
          CD Gaussian exp screening on grid/accCDfunc:  20
          XC Gaussian exp screening on grid/accXCfunc:  20
          Schwarz screening/accCoul:  1.00D-08


 Loading old vectors from job with title :

Water in 6-31g basis set


      Symmetry analysis of molecular orbitals - initial
      -------------------------------------------------

  Numbering of irreducible representations: 

     1 a1          2 a2          3 b1          4 b2      

  Orbital symmetries:

     1 a1          2 a1          3 b1          4 a1          5 b2      
     6 a1          7 b1          8 b1          9 a1         10 b2      
    11 a1         12 b1         13 a1      

   Time after variat. SCF:      0.7
   Time prior to 1st pass:      0.7

 #quartets = 6.670D+02 #integrals = 1.513D+03 #direct =  0.0% #cached =100.0%


 Integral file          = ./h2o.aoints.0
 Record size in doubles =  65536        No. of integs per rec  =  43688
 Max. records in memory =      2        Max. records in file   = 463303
 No. of bits per label  =      8        No. of bits per value  =     64


File balance: exchanges=     0  moved=     0  time=   0.0


 Grid_pts file          = ./h2o.gridpts.0
 Record size in doubles =  12289        No. of grid_pts per rec  =   3070
 Max. records in memory =      5        Max. recs in file   =   2470751


           Memory utilization after 1st SCF pass: 
           Heap Space remaining (MW):       12.91            12913366
          Stack Space remaining (MW):       13.11            13106964

   convergence    iter        energy       DeltaE   RMS-Dens  Diis-err    time
 ---------------- ----- ----------------- --------- --------- ---------  ------
 d= 0,ls=0.0,diis     1    -76.3853580162 -8.54D+01  4.29D-03  3.28D-03     0.8
 d= 0,ls=0.0,diis     2    -76.3858420904 -4.84D-04  1.57D-03  4.99D-04     0.8
 d= 0,ls=0.0,diis     3    -76.3858458985 -3.81D-06  7.23D-04  4.70D-04     0.8
 d= 0,ls=0.0,diis     4    -76.3858881380 -4.22D-05  1.33D-05  1.83D-08     0.8
 d= 0,ls=0.0,diis     5    -76.3858881418 -3.72D-09  9.32D-07  7.71D-10     0.9


         Total DFT energy =      -76.385888141751
      One electron energy =     -122.733208582394
           Coulomb energy =       46.699420362685
    Exchange-Corr. energy =       -9.343492885840
 Nuclear repulsion energy =        8.991392963798

 Numeric. integr. density =       10.000001212800

     Total iterative time =      0.2s



                  Occupations of the irreducible representations
                  ----------------------------------------------

                     irrep           alpha         beta
                     --------     --------     --------
                     a1                3.0          3.0
                     a2                0.0          0.0
                     b1                1.0          1.0
                     b2                1.0          1.0


                       DFT Final Molecular Orbital Analysis
                       ------------------------------------

 Vector    1  Occ=2.000000D+00  E=-1.913159D+01  Symmetry=a1
              MO Center= -7.8D-19,  1.1D-25,  9.4D-02, r^2= 1.5D-02
   Bfn.  Coefficient  Atom+Function         Bfn.  Coefficient  Atom+Function  
  ----- ------------  ---------------      ----- ------------  ---------------
     1      0.995041  1 O  s                  2      0.027836  1 O  s          

 Vector    2  Occ=2.000000D+00  E=-1.002491D+00  Symmetry=a1
              MO Center= -2.5D-16,  1.0D-16, -1.1D-01, r^2= 5.1D-01
   Bfn.  Coefficient  Atom+Function         Bfn.  Coefficient  Atom+Function  
  ----- ------------  ---------------      ----- ------------  ---------------
     2      0.466819  1 O  s                  6      0.459225  1 O  s          
     1     -0.210898  1 O  s                 10      0.145402  2 H  s          
    12      0.145402  3 H  s                  5     -0.140636  1 O  pz         
     9     -0.067345  1 O  pz         

 Vector    3  Occ=2.000000D+00  E=-5.331403D-01  Symmetry=b1
              MO Center= -5.6D-17, -2.3D-33, -1.2D-01, r^2= 8.2D-01
   Bfn.  Coefficient  Atom+Function         Bfn.  Coefficient  Atom+Function  
  ----- ------------  ---------------      ----- ------------  ---------------
     3      0.511047  1 O  px                10     -0.265909  2 H  s          
    12      0.265909  3 H  s                  7      0.233658  1 O  px         
    11     -0.145891  2 H  s                 13      0.145891  3 H  s          

 Vector    4  Occ=2.000000D+00  E=-3.427512D-01  Symmetry=a1
              MO Center= -9.4D-17,  1.2D-17,  2.1D-01, r^2= 6.8D-01
   Bfn.  Coefficient  Atom+Function         Bfn.  Coefficient  Atom+Function  
  ----- ------------  ---------------      ----- ------------  ---------------
     5      0.553194  1 O  pz                 9      0.392770  1 O  pz         
     6      0.351369  1 O  s                  2      0.189777  1 O  s          
    10     -0.135039  2 H  s                 12     -0.135039  3 H  s          
    11     -0.105288  2 H  s                 13     -0.105288  3 H  s          
     1     -0.085063  1 O  s          

 Vector    5  Occ=2.000000D+00  E=-2.882442D-01  Symmetry=b2
              MO Center=  3.4D-33, -9.0D-17,  9.4D-02, r^2= 6.0D-01
   Bfn.  Coefficient  Atom+Function         Bfn.  Coefficient  Atom+Function  
  ----- ------------  ---------------      ----- ------------  ---------------
     4      0.645449  1 O  py                 8      0.505861  1 O  py         

 Vector    6  Occ=0.000000D+00  E= 5.251084D-02  Symmetry=a1
              MO Center= -3.6D-15, -8.4D-18, -5.5D-01, r^2= 2.4D+00
   Bfn.  Coefficient  Atom+Function         Bfn.  Coefficient  Atom+Function  
  ----- ------------  ---------------      ----- ------------  ---------------
     6      1.077813  1 O  s                 11     -0.926175  2 H  s          
    13     -0.926175  3 H  s                  9     -0.424180  1 O  pz         
     5     -0.284290  1 O  pz                 2      0.159721  1 O  s          
    10     -0.113328  2 H  s                 12     -0.113328  3 H  s          
     1     -0.090741  1 O  s          

 Vector    7  Occ=0.000000D+00  E= 1.429901D-01  Symmetry=b1
              MO Center=  3.6D-15, -5.9D-32, -5.4D-01, r^2= 2.6D+00
   Bfn.  Coefficient  Atom+Function         Bfn.  Coefficient  Atom+Function  
  ----- ------------  ---------------      ----- ------------  ---------------
    11      1.243567  2 H  s                 13     -1.243567  3 H  s          
     7      0.762711  1 O  px                 3      0.421440  1 O  px         
    10      0.092372  2 H  s                 12     -0.092372  3 H  s          

 Vector    8  Occ=0.000000D+00  E= 8.358935D-01  Symmetry=b1
              MO Center=  6.2D-14, -3.8D-30, -2.5D-01, r^2= 1.7D+00
   Bfn.  Coefficient  Atom+Function         Bfn.  Coefficient  Atom+Function  
  ----- ------------  ---------------      ----- ------------  ---------------
    10      0.979913  2 H  s                 12     -0.979913  3 H  s          
    11     -0.714532  2 H  s                 13      0.714532  3 H  s          
     7      0.404232  1 O  px                 3      0.287206  1 O  px         

 Vector    9  Occ=0.000000D+00  E= 8.403486D-01  Symmetry=a1
              MO Center= -6.2D-14, -6.4D-18, -3.9D-01, r^2= 1.4D+00
   Bfn.  Coefficient  Atom+Function         Bfn.  Coefficient  Atom+Function  
  ----- ------------  ---------------      ----- ------------  ---------------
    10      0.869018  2 H  s                 12      0.869018  3 H  s          
    11     -0.630560  2 H  s                 13     -0.630560  3 H  s          
     5      0.560597  1 O  pz                 6      0.237975  1 O  s          
     2     -0.233134  1 O  s                  9     -0.179944  1 O  pz         
     1      0.047405  1 O  s          

 Vector   10  Occ=0.000000D+00  E= 8.915306D-01  Symmetry=b2
              MO Center= -3.6D-33, -5.1D-18,  9.4D-02, r^2= 1.1D+00
   Bfn.  Coefficient  Atom+Function         Bfn.  Coefficient  Atom+Function  
  ----- ------------  ---------------      ----- ------------  ---------------
     8     -1.039303  1 O  py                 4      0.958875  1 O  py         

 Vector   11  Occ=0.000000D+00  E= 9.377176D-01  Symmetry=a1
              MO Center= -5.1D-16,  5.3D-19,  2.5D-01, r^2= 1.2D+00
   Bfn.  Coefficient  Atom+Function         Bfn.  Coefficient  Atom+Function  
  ----- ------------  ---------------      ----- ------------  ---------------
     9      1.185759  1 O  pz                 5     -0.786950  1 O  pz         
    10      0.452564  2 H  s                 12      0.452564  3 H  s          
     2     -0.340837  1 O  s                  1      0.060893  1 O  s          
    11     -0.028549  2 H  s                 13     -0.028549  3 H  s          

 Vector   12  Occ=0.000000D+00  E= 1.076298D+00  Symmetry=b1
              MO Center=  1.5D-15, -2.2D-32,  1.6D-01, r^2= 1.5D+00
   Bfn.  Coefficient  Atom+Function         Bfn.  Coefficient  Atom+Function  
  ----- ------------  ---------------      ----- ------------  ---------------
     7      1.747336  1 O  px                 3     -0.965389  1 O  px         
    11      0.842468  2 H  s                 13     -0.842468  3 H  s          
    10      0.133032  2 H  s                 12     -0.133032  3 H  s          

 Vector   13  Occ=0.000000D+00  E= 1.400066D+00  Symmetry=a1
              MO Center= -5.7D-16, -4.6D-18, -2.1D-01, r^2= 1.2D+00
   Bfn.  Coefficient  Atom+Function         Bfn.  Coefficient  Atom+Function  
  ----- ------------  ---------------      ----- ------------  ---------------
     6      2.693275  1 O  s                  2     -1.685041  1 O  s          
     9     -0.734118  1 O  pz                11     -0.623499  2 H  s          
    13     -0.623499  3 H  s                 10     -0.381622  2 H  s          
    12     -0.381622  3 H  s                  5      0.170491  1 O  pz         
     1      0.062047  1 O  s          


 center of mass
 --------------
 x =   0.00000000 y =   0.00000000 z =   0.06185284

 moments of inertia (a.u.)
 ------------------
           1.946772481733           0.000000000000           0.000000000000
           0.000000000000           6.629819175340           0.000000000000
           0.000000000000           0.000000000000           4.683046693607

     Multipole analysis of the density
     ---------------------------------

     L   x y z        total         alpha         beta         nuclear
     -   - - -        -----         -----         ----         -------
     0   0 0 0     -0.000000     -5.000000     -5.000000     10.000000

     1   1 0 0      0.000000      0.000000      0.000000      0.000000
     1   0 1 0     -0.000000     -0.000000     -0.000000      0.000000
     1   0 0 1     -0.925519     -0.312725     -0.312725     -0.300069

     2   2 0 0     -2.956336     -3.801511     -3.801511      4.646686
     2   1 1 0     -0.000000     -0.000000     -0.000000      0.000000
     2   1 0 1     -0.000000     -0.000000     -0.000000      0.000000
     2   0 2 0     -5.357550     -2.678775     -2.678775      0.000000
     2   0 1 1      0.000000      0.000000      0.000000      0.000000
     2   0 0 2     -4.636508     -3.192789     -3.192789      1.749069


 Parallel integral file used       4 records with       0 large values

 Line search: 
     step= 1.00 grad=-3.2D-03 hess= 2.2D-03 energy=    -76.385888 mode=downhill
 new step= 0.72                   predicted energy=    -76.386067

          --------
          Step   1
          --------


                         Geometry "geometry" -> "geometry"
                         ---------------------------------

 Output coordinates in a.u. (scale by  1.000000000 to convert to a.u.)

  No.       Tag          Charge          X              Y              Z
 ---- ---------------- ---------- -------------- -------------- --------------
    1 O                    8.0000     0.00000000     0.00000000     0.19068538
    2 H                    1.0000    -1.49772043     0.00000000    -0.87034955
    3 H                    1.0000     1.49772043     0.00000000    -0.87034955

      Atomic Mass 
      ----------- 

      O                 15.994910
      H                  1.007825


 Effective nuclear repulsion energy (a.u.)       9.0509391376

            Nuclear Dipole moment (a.u.) 
            ----------------------------
        X                 Y               Z
 ---------------- ---------------- ----------------
     0.0000000000     0.0000000000    -0.2152160734

      Symmetry information
      --------------------

 Group name             C2v       
 Group number             16
 Group order               4
 No. of unique centers     2

      Symmetry unique atoms

     1    2


                                 NWChem DFT Module
                                 -----------------


                             Water in 6-31g basis set




 Summary of "ao basis" -> "ao basis" (cartesian)
 ------------------------------------------------------------------------------
       Tag                 Description            Shells   Functions and Types
 ---------------- ------------------------------  ------  ---------------------
 H                           6-31g                   2        2   2s
 O                           6-31g                   5        9   3s2p


      Symmetry analysis of basis
      --------------------------

        a1          7
        a2          0
        b1          4
        b2          2

  Caching 1-el integrals 

            General Information
            -------------------
          SCF calculation type: DFT
          Wavefunction type:  closed shell.
          No. of atoms     :     3
          No. of electrons :    10
           Alpha electrons :     5
            Beta electrons :     5
          Charge           :     0
          Spin multiplicity:     1
          Use of symmetry is: on ; symmetry adaption is: on 
          Maximum number of iterations:  30
          AO basis - number of functions:    13
                     number of shells:     9
          Convergence on energy requested:  1.00D-06
          Convergence on density requested:  1.00D-05
          Convergence on gradient requested:  5.00D-04

              XC Information
              --------------
                         B3LYP Method XC Potential
                     Hartree-Fock (Exact) Exchange  0.200          
                        Slater Exchange Functional  0.800 local    
                    Becke 1988 Exchange Functional  0.720 non-local
              Lee-Yang-Parr Correlation Functional  0.810          
                  VWN I RPA Correlation Functional  0.190 local    

             Grid Information
             ----------------
          Grid used for XC integration:  medium    
          Radial quadrature: Mura-Knowles        
          Angular quadrature: Lebedev. 
          Tag              B.-S. Rad. Rad. Pts. Rad. Cut. Ang. Pts.
          ---              ---------- --------- --------- ---------
          O                   0.60       49           5.0       434
          H                   0.35       45           6.0       434
          Grid pruning is: on 
          Number of quadrature shells:    94
          Spatial weights used:  Erf1

          Convergence Information
          -----------------------
          Convergence aids based upon iterative change in 
          total energy or number of iterations. 
          Levelshifting, if invoked, occurs when the 
          HOMO/LUMO gap drops below (HL_TOL):  1.00D-02
          DIIS, if invoked, will attempt to extrapolate 
          using up to (NFOCK): 10 stored Fock matrices.

                    Damping( 0%)  Levelshifting(0.5)       DIIS
                  --------------- ------------------- ---------------
          dE  on:    start            ASAP                start   
          dE off:    2 iters         30 iters            30 iters 


      Screening Tolerance Information
      -------------------------------
          Density screening/tol_rho:  1.00D-10
          AO Gaussian exp screening on grid/accAOfunc:  14
          CD Gaussian exp screening on grid/accCDfunc:  20
          XC Gaussian exp screening on grid/accXCfunc:  20
          Schwarz screening/accCoul:  1.00D-08


 Loading old vectors from job with title :

Water in 6-31g basis set


      Symmetry analysis of molecular orbitals - initial
      -------------------------------------------------

  Numbering of irreducible representations: 

     1 a1          2 a2          3 b1          4 b2      

  Orbital symmetries:

     1 a1          2 a1          3 b1          4 a1          5 b2      
     6 a1          7 b1          8 b1          9 a1         10 b2      
    11 a1         12 b1         13 a1      

   Time after variat. SCF:      0.9
   Time prior to 1st pass:      0.9

 #quartets = 6.670D+02 #integrals = 1.513D+03 #direct =  0.0% #cached =100.0%


 Integral file          = ./h2o.aoints.0
 Record size in doubles =  65536        No. of integs per rec  =  43688
 Max. records in memory =      2        Max. records in file   = 463303
 No. of bits per label  =      8        No. of bits per value  =     64


File balance: exchanges=     0  moved=     0  time=   0.0


 Grid_pts file          = ./h2o.gridpts.0
 Record size in doubles =  12289        No. of grid_pts per rec  =   3070
 Max. records in memory =      5        Max. recs in file   =   2470751


           Memory utilization after 1st SCF pass: 
           Heap Space remaining (MW):       12.91            12913366
          Stack Space remaining (MW):       13.11            13106964

   convergence    iter        energy       DeltaE   RMS-Dens  Diis-err    time
 ---------------- ----- ----------------- --------- --------- ---------  ------
 d= 0,ls=0.0,diis     1    -76.3860270174 -8.54D+01  1.15D-03  2.57D-04     1.0
 d= 0,ls=0.0,diis     2    -76.3860617502 -3.47D-05  4.79D-04  5.40D-05     1.0
 d= 0,ls=0.0,diis     3    -76.3860632122 -1.46D-06  2.08D-04  3.86D-05     1.0
 d= 0,ls=0.0,diis     4    -76.3860666814 -3.47D-06  3.84D-06  1.68D-09     1.1
 d= 0,ls=0.0,diis     5    -76.3860666818 -3.23D-10  2.46D-07  5.66D-11     1.1


         Total DFT energy =      -76.386066681753
      One electron energy =     -122.829833366964
           Coulomb energy =       46.741859554837
    Exchange-Corr. energy =       -9.349032007205
 Nuclear repulsion energy =        9.050939137579

 Numeric. integr. density =       10.000001885025

     Total iterative time =      0.2s



                  Occupations of the irreducible representations
                  ----------------------------------------------

                     irrep           alpha         beta
                     --------     --------     --------
                     a1                3.0          3.0
                     a2                0.0          0.0
                     b1                1.0          1.0
                     b2                1.0          1.0


                       DFT Final Molecular Orbital Analysis
                       ------------------------------------

 Vector    1  Occ=2.000000D+00  E=-1.913197D+01  Symmetry=a1
              MO Center= -3.0D-19,  6.8D-27,  1.0D-01, r^2= 1.5D-02
   Bfn.  Coefficient  Atom+Function         Bfn.  Coefficient  Atom+Function  
  ----- ------------  ---------------      ----- ------------  ---------------
     1      0.995040  1 O  s                  2      0.027868  1 O  s          

 Vector    2  Occ=2.000000D+00  E=-1.007225D+00  Symmetry=a1
              MO Center=  2.3D-16, -9.9D-17, -1.1D-01, r^2= 5.0D-01
   Bfn.  Coefficient  Atom+Function         Bfn.  Coefficient  Atom+Function  
  ----- ------------  ---------------      ----- ------------  ---------------
     2      0.465952  1 O  s                  6      0.456036  1 O  s          
     1     -0.210449  1 O  s                 10      0.147188  2 H  s          
    12      0.147188  3 H  s                  5     -0.144130  1 O  pz         
     9     -0.067977  1 O  pz         

 Vector    3  Occ=2.000000D+00  E=-5.328853D-01  Symmetry=b1
              MO Center= -3.7D-16,  2.0D-32, -1.2D-01, r^2= 8.1D-01
   Bfn.  Coefficient  Atom+Function         Bfn.  Coefficient  Atom+Function  
  ----- ------------  ---------------      ----- ------------  ---------------
     3      0.512686  1 O  px                10     -0.266547  2 H  s          
    12      0.266547  3 H  s                  7      0.233348  1 O  px         
    11     -0.146606  2 H  s                 13      0.146606  3 H  s          

 Vector    4  Occ=2.000000D+00  E=-3.465616D-01  Symmetry=a1
              MO Center=  3.6D-17, -7.1D-17,  2.2D-01, r^2= 6.8D-01
   Bfn.  Coefficient  Atom+Function         Bfn.  Coefficient  Atom+Function  
  ----- ------------  ---------------      ----- ------------  ---------------
     5      0.551094  1 O  pz                 9      0.388408  1 O  pz         
     6      0.357473  1 O  s                  2      0.192993  1 O  s          
    10     -0.136848  2 H  s                 12     -0.136848  3 H  s          
    11     -0.104602  2 H  s                 13     -0.104602  3 H  s          
     1     -0.086590  1 O  s          

 Vector    5  Occ=2.000000D+00  E=-2.894403D-01  Symmetry=b2
              MO Center=  3.7D-32,  1.7D-16,  1.0D-01, r^2= 6.0D-01
   Bfn.  Coefficient  Atom+Function         Bfn.  Coefficient  Atom+Function  
  ----- ------------  ---------------      ----- ------------  ---------------
     4      0.645658  1 O  py                 8      0.505634  1 O  py         

 Vector    6  Occ=0.000000D+00  E= 5.426957D-02  Symmetry=a1
              MO Center=  8.0D-15, -4.1D-17, -5.6D-01, r^2= 2.4D+00
   Bfn.  Coefficient  Atom+Function         Bfn.  Coefficient  Atom+Function  
  ----- ------------  ---------------      ----- ------------  ---------------
     6      1.084649  1 O  s                 11     -0.931206  2 H  s          
    13     -0.931206  3 H  s                  9     -0.429883  1 O  pz         
     5     -0.285442  1 O  pz                 2      0.157865  1 O  s          
    10     -0.108113  2 H  s                 12     -0.108113  3 H  s          
     1     -0.090052  1 O  s          

 Vector    7  Occ=0.000000D+00  E= 1.443950D-01  Symmetry=b1
              MO Center= -6.8D-15,  2.3D-33, -5.4D-01, r^2= 2.5D+00
   Bfn.  Coefficient  Atom+Function         Bfn.  Coefficient  Atom+Function  
  ----- ------------  ---------------      ----- ------------  ---------------
    11      1.257304  2 H  s                 13     -1.257304  3 H  s          
     7      0.761237  1 O  px                 3      0.420192  1 O  px         
    10      0.092892  2 H  s                 12     -0.092892  3 H  s          

 Vector    8  Occ=0.000000D+00  E= 8.296348D-01  Symmetry=b1
              MO Center= -2.3D-14,  3.8D-29, -2.3D-01, r^2= 1.7D+00
   Bfn.  Coefficient  Atom+Function         Bfn.  Coefficient  Atom+Function  
  ----- ------------  ---------------      ----- ------------  ---------------
    10      0.980540  2 H  s                 12     -0.980540  3 H  s          
    11     -0.694592  2 H  s                 13      0.694592  3 H  s          
     7      0.453211  1 O  px                 3      0.257495  1 O  px         

 Vector    9  Occ=0.000000D+00  E= 8.528136D-01  Symmetry=a1
              MO Center=  2.2D-14, -2.0D-18, -3.5D-01, r^2= 1.4D+00
   Bfn.  Coefficient  Atom+Function         Bfn.  Coefficient  Atom+Function  
  ----- ------------  ---------------      ----- ------------  ---------------
    10      0.836400  2 H  s                 12      0.836400  3 H  s          
     5      0.625102  1 O  pz                11     -0.622325  2 H  s          
    13     -0.622325  3 H  s                  9     -0.258955  1 O  pz         
     6      0.246856  1 O  s                  2     -0.226688  1 O  s          
     1      0.044492  1 O  s          

 Vector   10  Occ=0.000000D+00  E= 8.908505D-01  Symmetry=b2
              MO Center=  1.8D-34, -4.6D-21,  1.0D-01, r^2= 1.1D+00
   Bfn.  Coefficient  Atom+Function         Bfn.  Coefficient  Atom+Function  
  ----- ------------  ---------------      ----- ------------  ---------------
     8     -1.039413  1 O  py                 4      0.958735  1 O  py         

 Vector   11  Occ=0.000000D+00  E= 9.416867D-01  Symmetry=a1
              MO Center=  1.5D-16, -3.4D-18,  2.3D-01, r^2= 1.3D+00
   Bfn.  Coefficient  Atom+Function         Bfn.  Coefficient  Atom+Function  
  ----- ------------  ---------------      ----- ------------  ---------------
     9      1.178254  1 O  pz                 5     -0.737814  1 O  pz         
    10      0.517426  2 H  s                 12      0.517426  3 H  s          
     2     -0.376866  1 O  s                 11     -0.067686  2 H  s          
    13     -0.067686  3 H  s                  1      0.066192  1 O  s          

 Vector   12  Occ=0.000000D+00  E= 1.073386D+00  Symmetry=b1
              MO Center= -9.0D-17,  3.1D-33,  1.4D-01, r^2= 1.5D+00
   Bfn.  Coefficient  Atom+Function         Bfn.  Coefficient  Atom+Function  
  ----- ------------  ---------------      ----- ------------  ---------------
     7      1.723317  1 O  px                 3     -0.973093  1 O  px         
    11      0.872015  2 H  s                 13     -0.872015  3 H  s          
    10      0.093443  2 H  s                 12     -0.093443  3 H  s          

 Vector   13  Occ=0.000000D+00  E= 1.406228D+00  Symmetry=a1
              MO Center= -4.3D-16,  4.4D-17, -2.1D-01, r^2= 1.2D+00
   Bfn.  Coefficient  Atom+Function         Bfn.  Coefficient  Atom+Function  
  ----- ------------  ---------------      ----- ------------  ---------------
     6      2.719903  1 O  s                  2     -1.681623  1 O  s          
     9     -0.770393  1 O  pz                11     -0.625649  2 H  s          
    13     -0.625649  3 H  s                 10     -0.406628  2 H  s          
    12     -0.406628  3 H  s                  5      0.172392  1 O  pz         
     1      0.059827  1 O  s          


 center of mass
 --------------
 x =   0.00000000 y =   0.00000000 z =   0.07193976

 moments of inertia (a.u.)
 ------------------
           2.015250650144           0.000000000000           0.000000000000
           0.000000000000           6.536689183093           0.000000000000
           0.000000000000           0.000000000000           4.521438532949

     Multipole analysis of the density
     ---------------------------------

     L   x y z        total         alpha         beta         nuclear
     -   - - -        -----         -----         ----         -------
     0   0 0 0     -0.000000     -5.000000     -5.000000     10.000000

     1   1 0 0     -0.000000     -0.000000     -0.000000      0.000000
     1   0 1 0      0.000000      0.000000      0.000000      0.000000
     1   0 0 1     -0.937876     -0.361330     -0.361330     -0.215216

     2   2 0 0     -3.028060     -3.757196     -3.757196      4.486333
     2   1 1 0      0.000000      0.000000      0.000000      0.000000
     2   1 0 1      0.000000      0.000000      0.000000      0.000000
     2   0 2 0     -5.347440     -2.673720     -2.673720      0.000000
     2   0 1 1      0.000000      0.000000      0.000000      0.000000
     2   0 0 2     -4.618328     -3.212116     -3.212116      1.805904


 Parallel integral file used       4 records with       0 large values


            General Information
            -------------------
          SCF calculation type: DFT
          Wavefunction type:  closed shell.
          No. of atoms     :     3
          No. of electrons :    10
           Alpha electrons :     5
            Beta electrons :     5
          Charge           :     0
          Spin multiplicity:     1
          Use of symmetry is: on ; symmetry adaption is: on 
          Maximum number of iterations:  30
          AO basis - number of functions:    13
                     number of shells:     9
          Convergence on energy requested:  1.00D-06
          Convergence on density requested:  1.00D-05
          Convergence on gradient requested:  5.00D-04

              XC Information
              --------------
                         B3LYP Method XC Potential
                     Hartree-Fock (Exact) Exchange  0.200          
                        Slater Exchange Functional  0.800 local    
                    Becke 1988 Exchange Functional  0.720 non-local
              Lee-Yang-Parr Correlation Functional  0.810          
                  VWN I RPA Correlation Functional  0.190 local    

             Grid Information
             ----------------
          Grid used for XC integration:  medium    
          Radial quadrature: Mura-Knowles        
          Angular quadrature: Lebedev. 
          Tag              B.-S. Rad. Rad. Pts. Rad. Cut. Ang. Pts.
          ---              ---------- --------- --------- ---------
          O                   0.60       49           5.0       434
          H                   0.35       45           6.0       434
          Grid pruning is: on 
          Number of quadrature shells:    94
          Spatial weights used:  Erf1

          Convergence Information
          -----------------------
          Convergence aids based upon iterative change in 
          total energy or number of iterations. 
          Levelshifting, if invoked, occurs when the 
          HOMO/LUMO gap drops below (HL_TOL):  1.00D-02
          DIIS, if invoked, will attempt to extrapolate 
          using up to (NFOCK): 10 stored Fock matrices.

                    Damping( 0%)  Levelshifting(0.5)       DIIS
                  --------------- ------------------- ---------------
          dE  on:    start            ASAP                start   
          dE off:    2 iters         30 iters            30 iters 


      Screening Tolerance Information
      -------------------------------
          Density screening/tol_rho:  1.00D-10
          AO Gaussian exp screening on grid/accAOfunc:  14
          CD Gaussian exp screening on grid/accCDfunc:  20
          XC Gaussian exp screening on grid/accXCfunc:  20
          Schwarz screening/accCoul:  1.00D-08



                            NWChem DFT Gradient Module
                            --------------------------


                             Water in 6-31g basis set



  charge          =   0.00
  wavefunction    = closed shell

  Using symmetry


                         DFT ENERGY GRADIENTS

    atom               coordinates                        gradient
                 x          y          z           x          y          z
   1 O       0.000000   0.000000   0.190685    0.000000   0.000000  -0.005960
   2 H      -1.497720   0.000000  -0.870350    0.002037   0.000000   0.002980
   3 H       1.497720   0.000000  -0.870350   -0.002037   0.000000   0.002980

                 ----------------------------------------
                 |  Time  |  1-e(secs)   |  2-e(secs)   |
                 ----------------------------------------
                 |  CPU   |       0.00   |       0.01   |
                 ----------------------------------------
                 |  WALL  |       0.00   |       0.01   |
                 ----------------------------------------

  Step       Energy      Delta E   Gmax     Grms     Xrms     Xmax   Walltime
  ---- ---------------- -------- -------- -------- -------- -------- --------
@    1     -76.38606668 -1.2D-03  0.00596  0.00262  0.03411  0.06729      1.1
                                                                    


                                 NWChem DFT Module
                                 -----------------


                             Water in 6-31g basis set




 Summary of "ao basis" -> "ao basis" (cartesian)
 ------------------------------------------------------------------------------
       Tag                 Description            Shells   Functions and Types
 ---------------- ------------------------------  ------  ---------------------
 H                           6-31g                   2        2   2s
 O                           6-31g                   5        9   3s2p


      Symmetry analysis of basis
      --------------------------

        a1          7
        a2          0
        b1          4
        b2          2

  Caching 1-el integrals 

            General Information
            -------------------
          SCF calculation type: DFT
          Wavefunction type:  closed shell.
          No. of atoms     :     3
          No. of electrons :    10
           Alpha electrons :     5
            Beta electrons :     5
          Charge           :     0
          Spin multiplicity:     1
          Use of symmetry is: on ; symmetry adaption is: on 
          Maximum number of iterations:  30
          AO basis - number of functions:    13
                     number of shells:     9
          Convergence on energy requested:  1.00D-06
          Convergence on density requested:  1.00D-05
          Convergence on gradient requested:  5.00D-04

              XC Information
              --------------
                         B3LYP Method XC Potential
                     Hartree-Fock (Exact) Exchange  0.200          
                        Slater Exchange Functional  0.800 local    
                    Becke 1988 Exchange Functional  0.720 non-local
              Lee-Yang-Parr Correlation Functional  0.810          
                  VWN I RPA Correlation Functional  0.190 local    

             Grid Information
             ----------------
          Grid used for XC integration:  medium    
          Radial quadrature: Mura-Knowles        
          Angular quadrature: Lebedev. 
          Tag              B.-S. Rad. Rad. Pts. Rad. Cut. Ang. Pts.
          ---              ---------- --------- --------- ---------
          O                   0.60       49           5.0       434
          H                   0.35       45           6.0       434
          Grid pruning is: on 
          Number of quadrature shells:    94
          Spatial weights used:  Erf1

          Convergence Information
          -----------------------
          Convergence aids based upon iterative change in 
          total energy or number of iterations. 
          Levelshifting, if invoked, occurs when the 
          HOMO/LUMO gap drops below (HL_TOL):  1.00D-02
          DIIS, if invoked, will attempt to extrapolate 
          using up to (NFOCK): 10 stored Fock matrices.

                    Damping( 0%)  Levelshifting(0.5)       DIIS
                  --------------- ------------------- ---------------
          dE  on:    start            ASAP                start   
          dE off:    2 iters         30 iters            30 iters 


      Screening Tolerance Information
      -------------------------------
          Density screening/tol_rho:  1.00D-10
          AO Gaussian exp screening on grid/accAOfunc:  14
          CD Gaussian exp screening on grid/accCDfunc:  20
          XC Gaussian exp screening on grid/accXCfunc:  20
          Schwarz screening/accCoul:  1.00D-08


 Loading old vectors from job with title :

Water in 6-31g basis set


      Symmetry analysis of molecular orbitals - initial
      -------------------------------------------------

  Numbering of irreducible representations: 

     1 a1          2 a2          3 b1          4 b2      

  Orbital symmetries:

     1 a1          2 a1          3 b1          4 a1          5 b2      
     6 a1          7 b1          8 b1          9 a1         10 b2      
    11 a1         12 b1         13 a1      

   Time after variat. SCF:      1.2
   Time prior to 1st pass:      1.2

 #quartets = 6.670D+02 #integrals = 1.513D+03 #direct =  0.0% #cached =100.0%


 Integral file          = ./h2o.aoints.0
 Record size in doubles =  65536        No. of integs per rec  =  43688
 Max. records in memory =      2        Max. records in file   = 463303
 No. of bits per label  =      8        No. of bits per value  =     64


File balance: exchanges=     0  moved=     0  time=   0.0


 Grid_pts file          = ./h2o.gridpts.0
 Record size in doubles =  12289        No. of grid_pts per rec  =   3070
 Max. records in memory =      5        Max. recs in file   =   2470751


           Memory utilization after 1st SCF pass: 
           Heap Space remaining (MW):       12.91            12913366
          Stack Space remaining (MW):       13.11            13106964

   convergence    iter        energy       DeltaE   RMS-Dens  Diis-err    time
 ---------------- ----- ----------------- --------- --------- ---------  ------
 d= 0,ls=0.0,diis     1    -76.3860088142 -8.54D+01  2.30D-03  4.22D-04     1.3
 d= 0,ls=0.0,diis     2    -76.3860777993 -6.90D-05  7.39D-04  2.34D-04     1.3
 d= 0,ls=0.0,diis     3    -76.3860936888 -1.59D-05  2.97D-04  5.36D-05     1.3
 d= 0,ls=0.0,diis     4    -76.3860987250 -5.04D-06  7.60D-06  1.28D-08     1.3
 d= 0,ls=0.0,diis     5    -76.3860987268 -1.80D-09  1.06D-06  7.17D-11     1.3


         Total DFT energy =      -76.386098726841
      One electron energy =     -122.709515268675
           Coulomb energy =       46.676960364765
    Exchange-Corr. energy =       -9.342106441206
 Nuclear repulsion energy =        8.988562618275

 Numeric. integr. density =       10.000001862163

     Total iterative time =      0.2s



                  Occupations of the irreducible representations
                  ----------------------------------------------

                     irrep           alpha         beta
                     --------     --------     --------
                     a1                3.0          3.0
                     a2                0.0          0.0
                     b1                1.0          1.0
                     b2                1.0          1.0


                       DFT Final Molecular Orbital Analysis
                       ------------------------------------

 Vector    1  Occ=2.000000D+00  E=-1.913452D+01  Symmetry=a1
              MO Center=  5.1D-19, -4.3D-25,  1.1D-01, r^2= 1.5D-02
   Bfn.  Coefficient  Atom+Function         Bfn.  Coefficient  Atom+Function  
  ----- ------------  ---------------      ----- ------------  ---------------
     1      0.995044  1 O  s                  2      0.027840  1 O  s          

 Vector    2  Occ=2.000000D+00  E=-1.006060D+00  Symmetry=a1
              MO Center= -6.7D-17, -4.6D-17, -1.1D-01, r^2= 5.1D-01
   Bfn.  Coefficient  Atom+Function         Bfn.  Coefficient  Atom+Function  
  ----- ------------  ---------------      ----- ------------  ---------------
     2      0.465852  1 O  s                  6      0.457885  1 O  s          
     1     -0.210369  1 O  s                 10      0.145806  2 H  s          
    12      0.145806  3 H  s                  5     -0.144828  1 O  pz         
     9     -0.069288  1 O  pz         

 Vector    3  Occ=2.000000D+00  E=-5.274660D-01  Symmetry=b1
              MO Center=  1.7D-16,  2.2D-32, -1.1D-01, r^2= 8.2D-01
   Bfn.  Coefficient  Atom+Function         Bfn.  Coefficient  Atom+Function  
  ----- ------------  ---------------      ----- ------------  ---------------
     3      0.512513  1 O  px                10     -0.265005  2 H  s          
    12      0.265005  3 H  s                  7      0.236669  1 O  px         
    11     -0.149601  2 H  s                 13      0.149601  3 H  s          

 Vector    4  Occ=2.000000D+00  E=-3.499257D-01  Symmetry=a1
              MO Center=  8.2D-17, -1.5D-17,  2.3D-01, r^2= 6.8D-01
   Bfn.  Coefficient  Atom+Function         Bfn.  Coefficient  Atom+Function  
  ----- ------------  ---------------      ----- ------------  ---------------
     5      0.547720  1 O  pz                 9      0.383279  1 O  pz         
     6      0.361822  1 O  s                  2      0.195446  1 O  s          
    10     -0.139977  2 H  s                 12     -0.139977  3 H  s          
    11     -0.107771  2 H  s                 13     -0.107771  3 H  s          
     1     -0.087713  1 O  s          

 Vector    5  Occ=2.000000D+00  E=-2.897508D-01  Symmetry=b2
              MO Center= -5.4D-32,  4.0D-17,  1.1D-01, r^2= 5.9D-01
   Bfn.  Coefficient  Atom+Function         Bfn.  Coefficient  Atom+Function  
  ----- ------------  ---------------      ----- ------------  ---------------
     4      0.646137  1 O  py                 8      0.505115  1 O  py         

 Vector    6  Occ=0.000000D+00  E= 5.198231D-02  Symmetry=a1
              MO Center= -7.5D-15, -6.4D-18, -5.7D-01, r^2= 2.4D+00
   Bfn.  Coefficient  Atom+Function         Bfn.  Coefficient  Atom+Function  
  ----- ------------  ---------------      ----- ------------  ---------------
     6      1.067272  1 O  s                 11     -0.923393  2 H  s          
    13     -0.923393  3 H  s                  9     -0.437557  1 O  pz         
     5     -0.292329  1 O  pz                 2      0.156406  1 O  s          
    10     -0.107868  2 H  s                 12     -0.107868  3 H  s          
     1     -0.089025  1 O  s          

 Vector    7  Occ=0.000000D+00  E= 1.412602D-01  Symmetry=b1
              MO Center=  7.2D-15,  8.6D-32, -5.4D-01, r^2= 2.5D+00
   Bfn.  Coefficient  Atom+Function         Bfn.  Coefficient  Atom+Function  
  ----- ------------  ---------------      ----- ------------  ---------------
    11      1.243546  2 H  s                 13     -1.243546  3 H  s          
     7      0.753845  1 O  px                 3      0.423453  1 O  px         
    10      0.098421  2 H  s                 12     -0.098421  3 H  s          

 Vector    8  Occ=0.000000D+00  E= 8.173933D-01  Symmetry=b1
              MO Center= -1.9D-15,  5.9D-31, -2.4D-01, r^2= 1.7D+00
   Bfn.  Coefficient  Atom+Function         Bfn.  Coefficient  Atom+Function  
  ----- ------------  ---------------      ----- ------------  ---------------
    10      0.973699  2 H  s                 12     -0.973699  3 H  s          
    11     -0.720599  2 H  s                 13      0.720599  3 H  s          
     7      0.425245  1 O  px                 3      0.247438  1 O  px         

 Vector    9  Occ=0.000000D+00  E= 8.503375D-01  Symmetry=a1
              MO Center=  1.9D-15, -2.5D-17, -3.3D-01, r^2= 1.4D+00
   Bfn.  Coefficient  Atom+Function         Bfn.  Coefficient  Atom+Function  
  ----- ------------  ---------------      ----- ------------  ---------------
    10      0.815907  2 H  s                 12      0.815907  3 H  s          
     5      0.647483  1 O  pz                11     -0.629612  2 H  s          
    13     -0.629612  3 H  s                  9     -0.299539  1 O  pz         
     6      0.279539  1 O  s                  2     -0.227552  1 O  s          
     1      0.042430  1 O  s          

 Vector   10  Occ=0.000000D+00  E= 8.903088D-01  Symmetry=b2
              MO Center= -6.0D-33, -6.6D-19,  1.1D-01, r^2= 1.1D+00
   Bfn.  Coefficient  Atom+Function         Bfn.  Coefficient  Atom+Function  
  ----- ------------  ---------------      ----- ------------  ---------------
     8     -1.039666  1 O  py                 4      0.958412  1 O  py         

 Vector   11  Occ=0.000000D+00  E= 9.465427D-01  Symmetry=a1
              MO Center= -2.8D-16,  3.1D-18,  2.4D-01, r^2= 1.3D+00
   Bfn.  Coefficient  Atom+Function         Bfn.  Coefficient  Atom+Function  
  ----- ------------  ---------------      ----- ------------  ---------------
     9      1.164797  1 O  pz                 5     -0.716434  1 O  pz         
    10      0.536953  2 H  s                 12      0.536953  3 H  s          
     2     -0.411947  1 O  s                 11     -0.093275  2 H  s          
    13     -0.093275  3 H  s                  1      0.068698  1 O  s          
     6      0.058539  1 O  s          

 Vector   12  Occ=0.000000D+00  E= 1.069812D+00  Symmetry=b1
              MO Center=  5.1D-16,  6.4D-31,  1.5D-01, r^2= 1.5D+00
   Bfn.  Coefficient  Atom+Function         Bfn.  Coefficient  Atom+Function  
  ----- ------------  ---------------      ----- ------------  ---------------
     7      1.702585  1 O  px                 3     -0.972635  1 O  px         
    11      0.857723  2 H  s                 13     -0.857723  3 H  s          
    10      0.088977  2 H  s                 12     -0.088977  3 H  s          

 Vector   13  Occ=0.000000D+00  E= 1.410473D+00  Symmetry=a1
              MO Center=  3.9D-16,  5.0D-17, -2.1D-01, r^2= 1.2D+00
   Bfn.  Coefficient  Atom+Function         Bfn.  Coefficient  Atom+Function  
  ----- ------------  ---------------      ----- ------------  ---------------
     6      2.702349  1 O  s                  2     -1.672182  1 O  s          
     9     -0.803070  1 O  pz                11     -0.609762  2 H  s          
    13     -0.609762  3 H  s                 10     -0.430378  2 H  s          
    12     -0.430378  3 H  s                  5      0.182476  1 O  pz         
     1      0.058376  1 O  s          


 center of mass
 --------------
 x =   0.00000000 y =   0.00000000 z =   0.08913284

 moments of inertia (a.u.)
 ------------------
           2.134699305635           0.000000000000           0.000000000000
           0.000000000000           6.621896943002           0.000000000000
           0.000000000000           0.000000000000           4.487197637367

     Multipole analysis of the density
     ---------------------------------

     L   x y z        total         alpha         beta         nuclear
     -   - - -        -----         -----         ----         -------
     0   0 0 0     -0.000000     -5.000000     -5.000000     10.000000

     1   1 0 0      0.000000      0.000000      0.000000      0.000000
     1   0 1 0      0.000000      0.000000      0.000000      0.000000
     1   0 0 1     -0.947489     -0.438452     -0.438452     -0.070585

     2   2 0 0     -3.081221     -3.766789     -3.766789      4.452358
     2   1 1 0      0.000000      0.000000      0.000000      0.000000
     2   1 0 1      0.000000      0.000000      0.000000      0.000000
     2   0 2 0     -5.358038     -2.679019     -2.679019      0.000000
     2   0 1 1      0.000000      0.000000      0.000000      0.000000
     2   0 0 2     -4.618334     -3.263435     -3.263435      1.908536


 Parallel integral file used       4 records with       0 large values

 Line search: 
     step= 1.00 grad=-1.6D-04 hess= 1.3D-04 energy=    -76.386099 mode=downhill
 new step= 0.62                   predicted energy=    -76.386117

          --------
          Step   2
          --------


                         Geometry "geometry" -> "geometry"
                         ---------------------------------

 Output coordinates in a.u. (scale by  1.000000000 to convert to a.u.)

  No.       Tag          Charge          X              Y              Z
 ---- ---------------- ---------- -------------- -------------- --------------
    1 O                    8.0000     0.00000000     0.00000000     0.20357234
    2 H                    1.0000    -1.49417654     0.00000000    -0.87679303
    3 H                    1.0000     1.49417654     0.00000000    -0.87679303

      Atomic Mass 
      ----------- 

      O                 15.994910
      H                  1.007825


 Effective nuclear repulsion energy (a.u.)       9.0121661665

            Nuclear Dipole moment (a.u.) 
            ----------------------------
        X                 Y               Z
 ---------------- ---------------- ----------------
     0.0000000000     0.0000000000    -0.1250073300

      Symmetry information
      --------------------

[...]
     5     -0.289724  1 O  pz                 2      0.156990  1 O  s          
    10     -0.108052  2 H  s                 12     -0.108052  3 H  s          
     1     -0.089425  1 O  s          

 Vector    7  Occ=0.000000D+00  E= 1.424251D-01  Symmetry=b1
              MO Center=  1.1D-16,  0.0D+00, -5.4D-01, r^2= 2.5D+00
   Bfn.  Coefficient  Atom+Function         Bfn.  Coefficient  Atom+Function  
  ----- ------------  ---------------      ----- ------------  ---------------
    11      1.248449  2 H  s                 13     -1.248449  3 H  s          
     7      0.756676  1 O  px                 3      0.422269  1 O  px         
    10      0.096317  2 H  s                 12     -0.096317  3 H  s          

 Vector    8  Occ=0.000000D+00  E= 8.220252D-01  Symmetry=b1
              MO Center=  8.3D-17, -9.6D-35, -2.4D-01, r^2= 1.7D+00
   Bfn.  Coefficient  Atom+Function         Bfn.  Coefficient  Atom+Function  
  ----- ------------  ---------------      ----- ------------  ---------------
    10      0.976239  2 H  s                 12     -0.976239  3 H  s          
    11     -0.711163  2 H  s                 13      0.711163  3 H  s          
     7      0.434916  1 O  px                 3      0.251696  1 O  px         

 Vector    9  Occ=0.000000D+00  E= 8.511057D-01  Symmetry=a1
              MO Center= -1.9D-16, -7.4D-19, -3.4D-01, r^2= 1.4D+00
   Bfn.  Coefficient  Atom+Function         Bfn.  Coefficient  Atom+Function  
  ----- ------------  ---------------      ----- ------------  ---------------
    10      0.824014  2 H  s                 12      0.824014  3 H  s          
     5      0.638499  1 O  pz                11     -0.627163  2 H  s          
    13     -0.627163  3 H  s                  9     -0.283587  1 O  pz         
     6      0.267565  1 O  s                  2     -0.227409  1 O  s          
     1      0.043239  1 O  s          

 Vector   10  Occ=0.000000D+00  E= 8.905266D-01  Symmetry=b2
              MO Center=  5.1D-35,  1.1D-18,  1.1D-01, r^2= 1.1D+00
   Bfn.  Coefficient  Atom+Function         Bfn.  Coefficient  Atom+Function  
  ----- ------------  ---------------      ----- ------------  ---------------
     8     -1.039568  1 O  py                 4      0.958537  1 O  py         

 Vector   11  Occ=0.000000D+00  E= 9.446274D-01  Symmetry=a1
              MO Center=  4.3D-18,  5.7D-19,  2.4D-01, r^2= 1.3D+00
   Bfn.  Coefficient  Atom+Function         Bfn.  Coefficient  Atom+Function  
  ----- ------------  ---------------      ----- ------------  ---------------
     9      1.170207  1 O  pz                 5     -0.725137  1 O  pz         
    10      0.529166  2 H  s                 12      0.529166  3 H  s          
     2     -0.398097  1 O  s                 11     -0.083271  2 H  s          
    13     -0.083271  3 H  s                  1      0.067698  1 O  s          
     6      0.037407  1 O  s          

 Vector   12  Occ=0.000000D+00  E= 1.071196D+00  Symmetry=b1
              MO Center=  1.4D-16, -2.5D-31,  1.5D-01, r^2= 1.5D+00
   Bfn.  Coefficient  Atom+Function         Bfn.  Coefficient  Atom+Function  
  ----- ------------  ---------------      ----- ------------  ---------------
     7      1.710723  1 O  px                 3     -0.972702  1 O  px         
    11      0.862532  2 H  s                 13     -0.862532  3 H  s          
    10      0.091288  2 H  s                 12     -0.091288  3 H  s          

 Vector   13  Occ=0.000000D+00  E= 1.408709D+00  Symmetry=a1
              MO Center= -8.3D-17,  3.5D-18, -2.1D-01, r^2= 1.2D+00
   Bfn.  Coefficient  Atom+Function         Bfn.  Coefficient  Atom+Function  
  ----- ------------  ---------------      ----- ------------  ---------------
     6      2.708662  1 O  s                  2     -1.675904  1 O  s          
     9     -0.790069  1 O  pz                11     -0.615742  2 H  s          
    13     -0.615742  3 H  s                 10     -0.420989  2 H  s          
    12     -0.420989  3 H  s                  5      0.178598  1 O  pz         
     1      0.058966  1 O  s          


 center of mass
 --------------
 x =   0.00000000 y =   0.00000000 z =   0.08246698

 moments of inertia (a.u.)
 ------------------
           2.087980142146           0.000000000000           0.000000000000
           0.000000000000           6.591492487017           0.000000000000
           0.000000000000           0.000000000000           4.503512344871

     Multipole analysis of the density
     ---------------------------------

     L   x y z        total         alpha         beta         nuclear
     -   - - -        -----         -----         ----         -------
     0   0 0 0     -0.000000     -5.000000     -5.000000     10.000000

     1   1 0 0     -0.000000     -0.000000     -0.000000      0.000000
     1   0 1 0     -0.000000     -0.000000     -0.000000      0.000000
     1   0 0 1     -0.943704     -0.408522     -0.408522     -0.126659

     2   2 0 0     -3.059684     -3.764115     -3.764115      4.468546
     2   1 1 0     -0.000000     -0.000000     -0.000000      0.000000
     2   1 0 1      0.000000      0.000000      0.000000      0.000000
     2   0 2 0     -5.354230     -2.677115     -2.677115      0.000000
     2   0 1 1      0.000000      0.000000      0.000000      0.000000
     2   0 0 2     -4.618692     -3.243288     -3.243288      1.867884


 Parallel integral file used       4 records with       0 large values

 Line search: 
     step= 1.00 grad=-1.7D-07 hess= 8.6D-08 energy=    -76.386117 mode=accept  
 new step= 1.00                   predicted energy=    -76.386117

          --------
          Step   3
          --------


                         Geometry "geometry" -> "geometry"
                         ---------------------------------

 Output coordinates in a.u. (scale by  1.000000000 to convert to a.u.)

  No.       Tag          Charge          X              Y              Z
 ---- ---------------- ---------- -------------- -------------- --------------
    1 O                    8.0000     0.00000000     0.00000000     0.20333634
    2 H                    1.0000    -1.49474847     0.00000000    -0.87667503
    3 H                    1.0000     1.49474847     0.00000000    -0.87667503

      Atomic Mass 
      ----------- 

      O                 15.994910
      H                  1.007825


 Effective nuclear repulsion energy (a.u.)       9.0108327733

            Nuclear Dipole moment (a.u.) 
            ----------------------------
        X                 Y               Z
 ---------------- ---------------- ----------------
     0.0000000000     0.0000000000    -0.1266593441

      Symmetry information
      --------------------

 Group name             C2v       
 Group number             16
 Group order               4
 No. of unique centers     2

      Symmetry unique atoms

     1    2


                                 NWChem DFT Module
                                 -----------------


                             Water in 6-31g basis set




 Summary of "ao basis" -> "ao basis" (cartesian)
 ------------------------------------------------------------------------------
       Tag                 Description            Shells   Functions and Types
 ---------------- ------------------------------  ------  ---------------------
 H                           6-31g                   2        2   2s
 O                           6-31g                   5        9   3s2p


      Symmetry analysis of basis
      --------------------------

        a1          7
        a2          0
        b1          4
        b2          2


  The DFT is already converged 

         Total DFT energy =    -76.386117287300


            General Information
            -------------------
          SCF calculation type: DFT
          Wavefunction type:  closed shell.
          No. of atoms     :     3
          No. of electrons :    10
           Alpha electrons :     5
            Beta electrons :     5
          Charge           :     0
          Spin multiplicity:     1
          Use of symmetry is: on ; symmetry adaption is: on 
          Maximum number of iterations:  30
          AO basis - number of functions:    13
                     number of shells:     9
          Convergence on energy requested:  1.00D-06
          Convergence on density requested:  1.00D-05
          Convergence on gradient requested:  5.00D-04

              XC Information
              --------------
                         B3LYP Method XC Potential
                     Hartree-Fock (Exact) Exchange  0.200          
                        Slater Exchange Functional  0.800 local    
                    Becke 1988 Exchange Functional  0.720 non-local
              Lee-Yang-Parr Correlation Functional  0.810          
                  VWN I RPA Correlation Functional  0.190 local    

             Grid Information
             ----------------
          Grid used for XC integration:  medium    
          Radial quadrature: Mura-Knowles        
          Angular quadrature: Lebedev. 
          Tag              B.-S. Rad. Rad. Pts. Rad. Cut. Ang. Pts.
          ---              ---------- --------- --------- ---------
          O                   0.60       49           5.0       434
          H                   0.35       45           6.0       434
          Grid pruning is: on 
          Number of quadrature shells:    94
          Spatial weights used:  Erf1

          Convergence Information
          -----------------------
          Convergence aids based upon iterative change in 
          total energy or number of iterations. 
          Levelshifting, if invoked, occurs when the 
          HOMO/LUMO gap drops below (HL_TOL):  1.00D-02
          DIIS, if invoked, will attempt to extrapolate 
          using up to (NFOCK): 10 stored Fock matrices.

                    Damping( 0%)  Levelshifting(0.5)       DIIS
                  --------------- ------------------- ---------------
          dE  on:    start            ASAP                start   
          dE off:    2 iters         30 iters            30 iters 


      Screening Tolerance Information
      -------------------------------
          Density screening/tol_rho:  1.00D-10
          AO Gaussian exp screening on grid/accAOfunc:  14
          CD Gaussian exp screening on grid/accCDfunc:  20
          XC Gaussian exp screening on grid/accXCfunc:  20
          Schwarz screening/accCoul:  1.00D-08



                            NWChem DFT Gradient Module
                            --------------------------


                             Water in 6-31g basis set



  charge          =   0.00
  wavefunction    = closed shell

  Using symmetry


                         DFT ENERGY GRADIENTS

    atom               coordinates                        gradient
                 x          y          z           x          y          z
   1 O       0.000000   0.000000   0.203336    0.000000   0.000000  -0.000004
   2 H      -1.494748   0.000000  -0.876675    0.000004   0.000000   0.000002
   3 H       1.494748   0.000000  -0.876675   -0.000004   0.000000   0.000002

                 ----------------------------------------
                 |  Time  |  1-e(secs)   |  2-e(secs)   |
                 ----------------------------------------
                 |  CPU   |       0.00   |       0.00   |
                 ----------------------------------------
                 |  WALL  |       0.00   |       0.00   |
                 ----------------------------------------

  Step       Energy      Delta E   Gmax     Grms     Xrms     Xmax   Walltime
  ---- ---------------- -------- -------- -------- -------- -------- --------
@    3     -76.38611729 -8.5D-08  0.00000  0.00000  0.00029  0.00057      1.8
                                     ok       ok       ok       ok  


      ----------------------
      Optimization converged
      ----------------------


  Step       Energy      Delta E   Gmax     Grms     Xrms     Xmax   Walltime
  ---- ---------------- -------- -------- -------- -------- -------- --------
@    3     -76.38611729 -8.5D-08  0.00000  0.00000  0.00029  0.00057      1.8
                                     ok       ok       ok       ok  



                         Geometry "geometry" -> "geometry"
                         ---------------------------------

 Output coordinates in a.u. (scale by  1.000000000 to convert to a.u.)

  No.       Tag          Charge          X              Y              Z
 ---- ---------------- ---------- -------------- -------------- --------------
    1 O                    8.0000     0.00000000     0.00000000     0.20333634
    2 H                    1.0000    -1.49474847     0.00000000    -0.87667503
    3 H                    1.0000     1.49474847     0.00000000    -0.87667503

      Atomic Mass 
      ----------- 

      O                 15.994910
      H                  1.007825


 Effective nuclear repulsion energy (a.u.)       9.0108327733

            Nuclear Dipole moment (a.u.) 
            ----------------------------
        X                 Y               Z
 ---------------- ---------------- ----------------
     0.0000000000     0.0000000000    -0.1266593441

      Symmetry information
      --------------------

 Group name             C2v       
 Group number             16
 Group order               4
 No. of unique centers     2

      Symmetry unique atoms

     1    2

 ==============================================================================
                                internuclear distances
 ------------------------------------------------------------------------------
       center one      |      center two      | atomic units |       a.u.
 ------------------------------------------------------------------------------
    2 H                |   1 O                |     1.84410  |     1.84410
    3 H                |   1 O                |     1.84410  |     1.84410
 ------------------------------------------------------------------------------
                         number of included internuclear distances:          2
 ==============================================================================



 ==============================================================================
                                 internuclear angles
 ------------------------------------------------------------------------------
        center 1       |       center 2       |       center 3       |  degrees
 ------------------------------------------------------------------------------
    2 H                |   1 O                |   3 H                |   108.30
 ------------------------------------------------------------------------------
                            number of included internuclear angles:          1
 ==============================================================================




 Task  times  cpu:        1.1s     wall:        1.8s


                                NWChem Input Module
                                -------------------


 Summary of allocated global arrays
-----------------------------------
  No active global arrays



                         GA Statistics for process    0
                         ------------------------------

       create   destroy   get      put      acc     scatter   gather  read&inc
calls: 1098     1064     7242     1981     2722        0        0      754     
number of processes/call 0.00e+00 0.00e+00 0.00e+00 0.00e+00 0.00e+00
bytes total:             2.51e+06 7.91e+05 1.16e+06 0.00e+00 0.00e+00 6.03e+03
bytes remote:            6.61e+05 1.42e+05 2.81e+05 0.00e+00 0.00e+00 0.00e+00
Max memory consumed for GA by this process: 39368 bytes

MA_summarize_allocated_blocks: starting scan ...
MA_summarize_allocated_blocks: scan completed: 0 heap blocks, 0 stack blocks
MA usage statistics:

	allocation statistics:
					      heap	     stack
					      ----	     -----
	current number of blocks	         0	         0
	maximum number of blocks	        25	        57
	current total bytes		         0	         0
	maximum total bytes		   1550488	  22510520
	maximum total K-bytes		      1551	     22511
	maximum total M-bytes		         2	        23


                                     CITATION
                                     --------
                Please cite the following reference when publishing
                           results obtained with NWChem:

          E. Apr, E. J. Bylaska, W. A. de Jong, N. Govind, K. Kowalski,
       T. P. Straatsma, M. Valiev, H. J. J. van Dam, Y. Alexeev, J. Anchell,
       V. Anisimov, F. W. Aquino, R. Atta-Fynn, J. Autschbach, N. P. Bauman,
     J. C. Becca, D. E. Bernholdt, K. Bhaskaran-Nair, S. Bogatko, P. Borowski,
        J. Boschen, J. Brabec, A. Bruner, E. Caut, Y. Chen, G. N. Chuev,
      C. J. Cramer, J. Daily, M. J. O. Deegan, T. H. Dunning Jr., M. Dupuis,
   K. G. Dyall, G. I. Fann, S. A. Fischer, A. Fonari, H. Frchtl, L. Gagliardi,
      J. Garza, N. Gawande, S. Ghosh, K. Glaesemann, A. W. Gtz, J. Hammond,
       V. Helms, E. D. Hermes, K. Hirao, S. Hirata, M. Jacquelin, L. Jensen,
   B. G. Johnson, H. Jnsson, R. A. Kendall, M. Klemm, R. Kobayashi, V. Konkov,
      S. Krishnamoorthy, M. Krishnan, Z. Lin, R. D. Lins, R. J. Littlefield,
      A. J. Logsdail, K. Lopata, W. Ma, A. V. Marenich, J. Martin del Campo,
   D. Mejia-Rodriguez, J. E. Moore, J. M. Mullin, T. Nakajima, D. R. Nascimento,
    J. A. Nichols, P. J. Nichols, J. Nieplocha, A. Otero-de-la-Roza, B. Palmer,
    A. Panyala, T. Pirojsirikul, B. Peng, R. Peverati, J. Pittner, L. Pollack,
   R. M. Richard, P. Sadayappan, G. C. Schatz, W. A. Shelton, D. W. Silverstein,
   D. M. A. Smith, T. A. Soares, D. Song, M. Swart, H. L. Taylor, G. S. Thomas,
            V. Tipparaju, D. G. Truhlar, K. Tsemekhman, T. Van Voorhis,
     . Vzquez-Mayagoitia, P. Verma, O. Villa, A. Vishnu, K. D. Vogiatzis,
        D. Wang, J. H. Weare, M. J. Williamson, T. L. Windus, K. Woliski,
        A. T. Wong, Q. Wu, C. Yang, Q. Yu, M. Zacharias, Z. Zhang, Y. Zhao,
                                and R. J. Harrison
                        "NWChem: Past, present, and future
                         J. Chem. Phys. 152, 184102 (2020)
                               doi:10.1063/5.0004997

                                      AUTHORS
                                      -------
     E. Apra, E. J. Bylaska, N. Govind, K. Kowalski, M. Valiev, W. A. de Jong,
      T. P. Straatsma, H. J. J. van Dam, D. Wang, T. L. Windus, N. P. Bauman,
       A. Panyala, J. Hammond, J. Autschbach, K. Bhaskaran-Nair, J. Brabec,
    K. Lopata, S. A. Fischer, S. Krishnamoorthy, M. Jacquelin, W. Ma, M. Klemm,
       O. Villa, Y. Chen, V. Anisimov, F. Aquino, S. Hirata, M. T. Hackler,
           Eric Hermes, L. Jensen, J. E. Moore, J. C. Becca, V. Konjkov,
            D. Mejia-Rodriguez, T. Risthaus, M. Malagoli, A. Marenich,
   A. Otero-de-la-Roza, J. Mullin, P. Nichols, R. Peverati, J. Pittner, Y. Zhao,
        P.-D. Fan, A. Fonari, M. J. Williamson, R. J. Harrison, J. R. Rehr,
      M. Dupuis, D. Silverstein, D. M. A. Smith, J. Nieplocha, V. Tipparaju,
      M. Krishnan, B. E. Van Kuiken, A. Vazquez-Mayagoitia, M. Swart, Q. Wu,
   T. Van Voorhis, A. A. Auer, M. Nooijen, L. D. Crosby, E. Brown, G. Cisneros,
     G. I. Fann, H. Fruchtl, J. Garza, K. Hirao, R. A. Kendall, J. A. Nichols,
       K. Tsemekhman, K. Wolinski, J. Anchell, D. E. Bernholdt, P. Borowski,
       T. Clark, D. Clerc, H. Dachsel, M. J. O. Deegan, K. Dyall, D. Elwood,
      E. Glendening, M. Gutowski, A. C. Hess, J. Jaffe, B. G. Johnson, J. Ju,
        R. Kobayashi, R. Kutteh, Z. Lin, R. Littlefield, X. Long, B. Meng,
      T. Nakajima, S. Niu, L. Pollack, M. Rosing, K. Glaesemann, G. Sandrone,
      M. Stave, H. Taylor, G. Thomas, J. H. van Lenthe, A. T. Wong, Z. Zhang.

 Total times  cpu:        1.1s     wall:        1.9s
