 argument  1 = h2o_b3lyp_6-31g_geopt.nw
                                         
                                         


             Northwest Computational Chemistry Package (NWChem) 7.0.2
             --------------------------------------------------------


                    Environmental Molecular Sciences Laboratory
                       Pacific Northwest National Laboratory
                                Richland, WA 99352

                              Copyright (c) 1994-2020
                       Pacific Northwest National Laboratory
                            Battelle Memorial Institute

             NWChem is an open-source computational chemistry package
                        distributed under the terms of the
                      Educational Community License (ECL) 2.0
             A copy of the license is included with this distribution
                              in the LICENSE.TXT file

                                  ACKNOWLEDGMENT
                                  --------------

            This software and its documentation were developed at the
            EMSL at Pacific Northwest National Laboratory, a multiprogram
            national laboratory, operated for the U.S. Department of Energy
            by Battelle under Contract Number DE-AC05-76RL01830. Support
            for this work was provided by the Department of Energy Office
            of Biological and Environmental Research, Office of Basic
            Energy Sciences, and the Office of Advanced Scientific Computing.


           Job information
           ---------------

    hostname        = DESKTOP-M7D5GNM
    program         = /usr/bin/nwchem
    date            = Thu Oct 10 15:37:33 2024

    compiled        = Sat_Apr_09_17:12:10_2022
    source          = /build/nwchem-f1f4gx/nwchem-7.0.2/build-openmpi
    nwchem branch   = 7.0.2
    nwchem revision = N/A
    ga revision     = 5.8.1
    use scalapack   = T
    input           = h2o_b3lyp_6-31g_geopt.nw
    prefix          = h2o.
    data base       = ./h2o.db
    status          = startup
    nproc           =        4
    time left       =     -1s



           Memory information
           ------------------

    heap     =   13107196 doubles =    100.0 Mbytes
    stack    =   13107201 doubles =    100.0 Mbytes
    global   =   26214400 doubles =    200.0 Mbytes (distinct from heap & stack)
    total    =   52428797 doubles =    400.0 Mbytes
    verify   = yes
    hardfail = no 


           Directory information
           ---------------------

  0 permanent = .
  0 scratch   = .




                                NWChem Input Module
                                -------------------


                             Water in 6-31g basis set
                             ------------------------
 C2V symmetry detected


                             Geometry "geometry" -> ""
                             -------------------------

 Output coordinates in a.u. (scale by  1.000000000 to convert to a.u.)

  No.       Tag          Charge          X              Y              Z
 ---- ---------------- ---------- -------------- -------------- --------------
    1 O                    8.0000     0.00000000     0.00000000     0.22143053
    2 H                    1.0000    -1.43042809     0.00000000    -0.88572213
    3 H                    1.0000     1.43042809     0.00000000    -0.88572213

      Atomic Mass 
      ----------- 

      O                 15.994910
      H                  1.007825


 Effective nuclear repulsion energy (a.u.)       9.1949809303

            Nuclear Dipole moment (a.u.) 
            ----------------------------
        X                 Y               Z
 ---------------- ---------------- ----------------
     0.0000000000     0.0000000000     0.0000000000

      Symmetry information
      --------------------

 Group name             C2v       
 Group number             16
 Group order               4
 No. of unique centers     2

      Symmetry unique atoms

     1    2


            XYZ format geometry
            -------------------
     3
 geometry
 O                     0.00000000     0.00000000     0.11717600
 H                    -0.75695000     0.00000000    -0.46870400
 H                     0.75695000     0.00000000    -0.46870400

 ==============================================================================
                                internuclear distances
 ------------------------------------------------------------------------------
       center one      |      center two      | atomic units |       a.u.
 ------------------------------------------------------------------------------
    2 H                |   1 O                |     1.80884  |     1.80884
    3 H                |   1 O                |     1.80884  |     1.80884
 ------------------------------------------------------------------------------
                         number of included internuclear distances:          2
 ==============================================================================



 ==============================================================================
                                 internuclear angles
 ------------------------------------------------------------------------------
        center 1       |       center 2       |       center 3       |  degrees
 ------------------------------------------------------------------------------
    2 H                |   1 O                |   3 H                |   104.52
 ------------------------------------------------------------------------------
                            number of included internuclear angles:          1
 ==============================================================================



                      Basis "ao basis" -> "" (cartesian)
                      -----
  H (Hydrogen)
  ------------
            Exponent  Coefficients 
       -------------- ---------------------------------------------------------
  1 S  1.87311370E+01  0.033495
  1 S  2.82539370E+00  0.234727
  1 S  6.40121700E-01  0.813757

  2 S  1.61277800E-01  1.000000

  O (Oxygen)
  ----------
            Exponent  Coefficients 
       -------------- ---------------------------------------------------------
  1 S  5.48467170E+03  0.001831
  1 S  8.25234950E+02  0.013950
  1 S  1.88046960E+02  0.068445
  1 S  5.29645000E+01  0.232714
  1 S  1.68975700E+01  0.470193
  1 S  5.79963530E+00  0.358521

  2 S  1.55396160E+01 -0.110778
  2 S  3.59993360E+00 -0.148026
  2 S  1.01376180E+00  1.130767

  3 P  1.55396160E+01  0.070874
  3 P  3.59993360E+00  0.339753
  3 P  1.01376180E+00  0.727159

  4 S  2.70005800E-01  1.000000

  5 P  2.70005800E-01  1.000000



 Summary of "ao basis" -> "" (cartesian)
 ------------------------------------------------------------------------------
       Tag                 Description            Shells   Functions and Types
 ---------------- ------------------------------  ------  ---------------------
 H                           6-31g                   2        2   2s
 O                           6-31g                   5        9   3s2p




                           NWChem Geometry Optimization
                           ----------------------------




                             Water in 6-31g basis set


 maximum gradient threshold         (gmax) =   0.000450
 rms gradient threshold             (grms) =   0.000300
 maximum cartesian step threshold   (xmax) =   0.001800
 rms cartesian step threshold       (xrms) =   0.001200
 fixed trust radius                (trust) =   0.300000
 maximum step size to saddle      (sadstp) =   0.100000
 energy precision                  (eprec) =   5.0D-06
 maximum number of steps          (nptopt) =   20
 initial hessian option           (inhess) =    0
 line search option               (linopt) =    1
 hessian update option            (modupd) =    1
 saddle point option              (modsad) =    0
 initial eigen-mode to follow     (moddir) =    0
 initial variable to follow       (vardir) =    0
 follow first negative mode     (firstneg) =    T
 apply conjugacy                    (opcg) =    F
 source of zmatrix                         =           


          -------------------
          Energy Minimization
          -------------------


 Using old Hessian from previous optimization

          --------
          Step   0
          --------


                         Geometry "geometry" -> "geometry"
                         ---------------------------------

 Output coordinates in a.u. (scale by  1.000000000 to convert to a.u.)

  No.       Tag          Charge          X              Y              Z
 ---- ---------------- ---------- -------------- -------------- --------------
    1 O                    8.0000     0.00000000     0.00000000     0.22143053
    2 H                    1.0000    -1.43042809     0.00000000    -0.88572213
    3 H                    1.0000     1.43042809     0.00000000    -0.88572213

      Atomic Mass 
      ----------- 

      O                 15.994910
      H                  1.007825


 Effective nuclear repulsion energy (a.u.)       9.1949809303

            Nuclear Dipole moment (a.u.) 
            ----------------------------
        X                 Y               Z
 ---------------- ---------------- ----------------
     0.0000000000     0.0000000000     0.0000000000

      Symmetry information
      --------------------

 Group name             C2v       
 Group number             16
 Group order               4
 No. of unique centers     2

      Symmetry unique atoms

     1    2


                                 NWChem DFT Module
                                 -----------------


                             Water in 6-31g basis set




 Summary of "ao basis" -> "ao basis" (cartesian)
 ------------------------------------------------------------------------------
       Tag                 Description            Shells   Functions and Types
 ---------------- ------------------------------  ------  ---------------------
 H                           6-31g                   2        2   2s
 O                           6-31g                   5        9   3s2p


      Symmetry analysis of basis
      --------------------------

        a1          7
        a2          0
        b1          4
        b2          2

  Caching 1-el integrals 

            General Information
            -------------------
          SCF calculation type: DFT
          Wavefunction type:  closed shell.
          No. of atoms     :     3
          No. of electrons :    10
           Alpha electrons :     5
            Beta electrons :     5
          Charge           :     0
          Spin multiplicity:     1
          Use of symmetry is: on ; symmetry adaption is: on 
          Maximum number of iterations:  30
          AO basis - number of functions:    13
                     number of shells:     9
          Convergence on energy requested:  1.00D-06
          Convergence on density requested:  1.00D-05
          Convergence on gradient requested:  5.00D-04

              XC Information
              --------------
                         B3LYP Method XC Potential
                     Hartree-Fock (Exact) Exchange  0.200          
                        Slater Exchange Functional  0.800 local    
                    Becke 1988 Exchange Functional  0.720 non-local
              Lee-Yang-Parr Correlation Functional  0.810          
                  VWN I RPA Correlation Functional  0.190 local    

             Grid Information
             ----------------
          Grid used for XC integration:  medium    
          Radial quadrature: Mura-Knowles        
          Angular quadrature: Lebedev. 
          Tag              B.-S. Rad. Rad. Pts. Rad. Cut. Ang. Pts.
          ---              ---------- --------- --------- ---------
          O                   0.60       49           5.0       434
          H                   0.35       45           6.0       434
          Grid pruning is: on 
          Number of quadrature shells:    94
          Spatial weights used:  Erf1

          Convergence Information
          -----------------------
          Convergence aids based upon iterative change in 
          total energy or number of iterations. 
          Levelshifting, if invoked, occurs when the 
          HOMO/LUMO gap drops below (HL_TOL):  1.00D-02
          DIIS, if invoked, will attempt to extrapolate 
          using up to (NFOCK): 10 stored Fock matrices.

                    Damping( 0%)  Levelshifting(0.5)       DIIS
                  --------------- ------------------- ---------------
          dE  on:    start            ASAP                start   
          dE off:    2 iters         30 iters            30 iters 


      Screening Tolerance Information
      -------------------------------
          Density screening/tol_rho:  1.00D-10
          AO Gaussian exp screening on grid/accAOfunc:  14
          CD Gaussian exp screening on grid/accCDfunc:  20
          XC Gaussian exp screening on grid/accXCfunc:  20
          Schwarz screening/accCoul:  1.00D-08


      Superposition of Atomic Density Guess
      -------------------------------------

 Sum of atomic energies:         -75.75081731

      Non-variational initial energy
      ------------------------------

 Total energy =     -75.919497
 1-e energy   =    -121.734217
 2-e energy   =      36.619739
 HOMO         =      -0.469044
 LUMO         =       0.116432


      Symmetry analysis of molecular orbitals - initial
      -------------------------------------------------

  Numbering of irreducible representations: 

     1 a1          2 a2          3 b1          4 b2      

  Orbital symmetries:

     1 a1          2 a1          3 b1          4 a1          5 b2      
     6 a1          7 b1          8 b1          9 b2         10 a1      
    11 a1         12 b1         13 a1      

   Time after variat. SCF:      0.2
   Time prior to 1st pass:      0.2

 #quartets = 6.670D+02 #integrals = 1.513D+03 #direct =  0.0% #cached =100.0%


 Integral file          = ./h2o.aoints.0
 Record size in doubles =  65536        No. of integs per rec  =  43688
 Max. records in memory =      2        Max. records in file   = 463303
 No. of bits per label  =      8        No. of bits per value  =     64


File balance: exchanges=     0  moved=     0  time=   0.0


 Grid_pts file          = ./h2o.gridpts.0
 Record size in doubles =  12289        No. of grid_pts per rec  =   3070
 Max. records in memory =      5        Max. recs in file   =   2470751


           Memory utilization after 1st SCF pass: 
           Heap Space remaining (MW):       12.91            12913364
          Stack Space remaining (MW):       13.11            13106972

   convergence    iter        energy       DeltaE   RMS-Dens  Diis-err    time
 ---------------- ----- ----------------- --------- --------- ---------  ------
 d= 0,ls=0.0,diis     1    -76.3458783279 -8.55D+01  5.56D-02  3.45D-01     0.3
 d= 0,ls=0.0,diis     2    -76.3425695349  3.31D-03  2.80D-02  4.61D-01     0.3
 d= 0,ls=0.0,diis     3    -76.3842785640 -4.17D-02  2.86D-03  7.11D-03     0.3
 d= 0,ls=0.0,diis     4    -76.3849159413 -6.37D-04  1.12D-04  3.87D-06     0.3
 d= 0,ls=0.0,diis     5    -76.3849164382 -4.97D-07  1.18D-05  8.45D-09     0.4
 d= 0,ls=0.0,diis     6    -76.3849164404 -2.16D-09  1.02D-06  9.84D-11     0.4


         Total DFT energy =      -76.384916440376
      One electron energy =     -123.060527324234
           Coulomb energy =       46.842839697608
    Exchange-Corr. energy =       -9.362209744025
 Nuclear repulsion energy =        9.194980930276

 Numeric. integr. density =       10.000001346292

     Total iterative time =      0.2s



                  Occupations of the irreducible representations
                  ----------------------------------------------

                     irrep           alpha         beta
                     --------     --------     --------
                     a1                3.0          3.0
                     a2                0.0          0.0
                     b1                1.0          1.0
                     b2                1.0          1.0


                       DFT Final Molecular Orbital Analysis
                       ------------------------------------

 Vector    1  Occ=2.000000D+00  E=-1.913298D+01  Symmetry=a1
              MO Center=  4.6D-19, -1.8D-25,  1.2D-01, r^2= 1.5D-02
   Bfn.  Coefficient  Atom+Function         Bfn.  Coefficient  Atom+Function  
  ----- ------------  ---------------      ----- ------------  ---------------
     1      0.995036  1 O  s                  2      0.027939  1 O  s          

 Vector    2  Occ=2.000000D+00  E=-1.019292D+00  Symmetry=a1
              MO Center=  7.2D-16,  3.5D-17, -1.1D-01, r^2= 5.0D-01
   Bfn.  Coefficient  Atom+Function         Bfn.  Coefficient  Atom+Function  
  ----- ------------  ---------------      ----- ------------  ---------------
     2      0.463672  1 O  s                  6      0.447390  1 O  s          
     1     -0.209228  1 O  s                  5     -0.153058  1 O  pz         
    10      0.151900  2 H  s                 12      0.151900  3 H  s          
     9     -0.069222  1 O  pz         

 Vector    3  Occ=2.000000D+00  E=-5.309647D-01  Symmetry=b1
              MO Center= -7.9D-16,  2.8D-32, -1.1D-01, r^2= 7.9D-01
   Bfn.  Coefficient  Atom+Function         Bfn.  Coefficient  Atom+Function  
  ----- ------------  ---------------      ----- ------------  ---------------
     3      0.516837  1 O  px                10     -0.267746  2 H  s          
    12      0.267746  3 H  s                  7      0.233459  1 O  px         
    11     -0.149281  2 H  s                 13      0.149281  3 H  s          

 Vector    4  Occ=2.000000D+00  E=-3.564451D-01  Symmetry=a1
              MO Center= -2.6D-17,  5.7D-17,  2.4D-01, r^2= 6.7D-01
   Bfn.  Coefficient  Atom+Function         Bfn.  Coefficient  Atom+Function  
  ----- ------------  ---------------      ----- ------------  ---------------
     5      0.545418  1 O  pz                 9      0.376490  1 O  pz         
     6      0.373796  1 O  s                  2      0.201174  1 O  s          
    10     -0.141819  2 H  s                 12     -0.141819  3 H  s          
    11     -0.103268  2 H  s                 13     -0.103268  3 H  s          
     1     -0.090556  1 O  s          

 Vector    5  Occ=2.000000D+00  E=-2.923535D-01  Symmetry=b2
              MO Center=  1.1D-32, -1.1D-16,  1.2D-01, r^2= 5.9D-01
   Bfn.  Coefficient  Atom+Function         Bfn.  Coefficient  Atom+Function  
  ----- ------------  ---------------      ----- ------------  ---------------
     4      0.646206  1 O  py                 8      0.505040  1 O  py         

 Vector    6  Occ=0.000000D+00  E= 5.756231D-02  Symmetry=a1
              MO Center=  1.7D-16,  3.2D-18, -5.9D-01, r^2= 2.4D+00
   Bfn.  Coefficient  Atom+Function         Bfn.  Coefficient  Atom+Function  
  ----- ------------  ---------------      ----- ------------  ---------------
     6      1.098060  1 O  s                 11     -0.940896  2 H  s          
    13     -0.940896  3 H  s                  9     -0.443621  1 O  pz         
     5     -0.288549  1 O  pz                 2      0.153135  1 O  s          
    10     -0.095915  2 H  s                 12     -0.095915  3 H  s          
     1     -0.088212  1 O  s          

 Vector    7  Occ=0.000000D+00  E= 1.477271D-01  Symmetry=b1
              MO Center= -1.1D-16,  6.2D-33, -5.5D-01, r^2= 2.5D+00
   Bfn.  Coefficient  Atom+Function         Bfn.  Coefficient  Atom+Function  
  ----- ------------  ---------------      ----- ------------  ---------------
    11      1.293431  2 H  s                 13     -1.293431  3 H  s          
     7      0.756898  1 O  px                 3      0.417303  1 O  px         
    10      0.094865  2 H  s                 12     -0.094865  3 H  s          

 Vector    8  Occ=0.000000D+00  E= 8.121456D-01  Symmetry=b1
              MO Center= -8.3D-17,  0.0D+00, -1.9D-01, r^2= 1.7D+00
   Bfn.  Coefficient  Atom+Function         Bfn.  Coefficient  Atom+Function  
  ----- ------------  ---------------      ----- ------------  ---------------
    10      0.975367  2 H  s                 12     -0.975367  3 H  s          
    11     -0.654420  2 H  s                 13      0.654420  3 H  s          
     7      0.548095  1 O  px                 3      0.192117  1 O  px         

 Vector    9  Occ=0.000000D+00  E= 8.789361D-01  Symmetry=a1
              MO Center= -1.4D-16, -2.2D-17, -1.6D-01, r^2= 1.3D+00
   Bfn.  Coefficient  Atom+Function         Bfn.  Coefficient  Atom+Function  
  ----- ------------  ---------------      ----- ------------  ---------------
     5      0.800928  1 O  pz                10      0.691636  2 H  s          
    12      0.691636  3 H  s                 11     -0.585304  2 H  s          
    13     -0.585304  3 H  s                  9     -0.524616  1 O  pz         
     6      0.268873  1 O  s                  2     -0.171641  1 O  s          
     1      0.030281  1 O  s          

 Vector   10  Occ=0.000000D+00  E= 8.891924D-01  Symmetry=b2
              MO Center= -4.3D-33,  2.5D-17,  1.2D-01, r^2= 1.1D+00
   Bfn.  Coefficient  Atom+Function         Bfn.  Coefficient  Atom+Function  
  ----- ------------  ---------------      ----- ------------  ---------------
     8     -1.039702  1 O  py                 4      0.958365  1 O  py         

 Vector   11  Occ=0.000000D+00  E= 9.577265D-01  Symmetry=a1
              MO Center=  6.1D-16,  1.5D-18,  1.0D-01, r^2= 1.4D+00
   Bfn.  Coefficient  Atom+Function         Bfn.  Coefficient  Atom+Function  
  ----- ------------  ---------------      ----- ------------  ---------------
     9      1.103775  1 O  pz                10      0.706787  2 H  s          
    12      0.706787  3 H  s                  5     -0.546564  1 O  pz         
     2     -0.486812  1 O  s                 11     -0.198979  2 H  s          
    13     -0.198979  3 H  s                  6      0.096168  1 O  s          
     1      0.080679  1 O  s          

 Vector   12  Occ=0.000000D+00  E= 1.069177D+00  Symmetry=b1
              MO Center= -7.1D-16,  2.5D-31,  1.1D-01, r^2= 1.5D+00
   Bfn.  Coefficient  Atom+Function         Bfn.  Coefficient  Atom+Function  
  ----- ------------  ---------------      ----- ------------  ---------------
     7      1.663570  1 O  px                 3     -0.986424  1 O  px         
    11      0.937304  2 H  s                 13     -0.937304  3 H  s          

 Vector   13  Occ=0.000000D+00  E= 1.422959D+00  Symmetry=a1
              MO Center=  2.2D-16,  9.5D-18, -2.2D-01, r^2= 1.2D+00
   Bfn.  Coefficient  Atom+Function         Bfn.  Coefficient  Atom+Function  
  ----- ------------  ---------------      ----- ------------  ---------------
     6      2.784803  1 O  s                  2     -1.667713  1 O  s          
     9     -0.868824  1 O  pz                11     -0.627320  2 H  s          
    13     -0.627320  3 H  s                 10     -0.477812  2 H  s          
    12     -0.477812  3 H  s                  5      0.174386  1 O  pz         
     1      0.053567  1 O  s          


 center of mass
 --------------
 x =   0.00000000 y =   0.00000000 z =   0.09752365

 moments of inertia (a.u.)
 ------------------
           2.194243005950           0.000000000000           0.000000000000
           0.000000000000           6.318513896020           0.000000000000
           0.000000000000           0.000000000000           4.124270890070

     Multipole analysis of the density
     ---------------------------------

     L   x y z        total         alpha         beta         nuclear
     -   - - -        -----         -----         ----         -------
     0   0 0 0     -0.000000     -5.000000     -5.000000     10.000000

     1   1 0 0      0.000000      0.000000      0.000000      0.000000
     1   0 1 0     -0.000000     -0.000000     -0.000000      0.000000
     1   0 0 1     -0.968009     -0.484005     -0.484005      0.000000

     2   2 0 0     -3.207320     -3.649784     -3.649784      4.092249
     2   1 1 0     -0.000000     -0.000000     -0.000000      0.000000
     2   1 0 1     -0.000000     -0.000000     -0.000000      0.000000
     2   0 2 0     -5.323604     -2.661802     -2.661802      0.000000
     2   0 1 1      0.000000      0.000000      0.000000      0.000000
     2   0 0 2     -4.573556     -3.267408     -3.267408      1.961259


 Parallel integral file used       4 records with       0 large values


            General Information
            -------------------
          SCF calculation type: DFT
          Wavefunction type:  closed shell.
          No. of atoms     :     3
          No. of electrons :    10
           Alpha electrons :     5
            Beta electrons :     5
          Charge           :     0
          Spin multiplicity:     1
          Use of symmetry is: on ; symmetry adaption is: on 
          Maximum number of iterations:  30
          AO basis - number of functions:    13
                     number of shells:     9
          Convergence on energy requested:  1.00D-06
          Convergence on density requested:  1.00D-05
          Convergence on gradient requested:  5.00D-04

              XC Information
              --------------
                         B3LYP Method XC Potential
                     Hartree-Fock (Exact) Exchange  0.200          
                        Slater Exchange Functional  0.800 local    
                    Becke 1988 Exchange Functional  0.720 non-local
              Lee-Yang-Parr Correlation Functional  0.810          
                  VWN I RPA Correlation Functional  0.190 local    

             Grid Information
             ----------------
          Grid used for XC integration:  medium    
          Radial quadrature: Mura-Knowles        
          Angular quadrature: Lebedev. 
          Tag              B.-S. Rad. Rad. Pts. Rad. Cut. Ang. Pts.
          ---              ---------- --------- --------- ---------
          O                   0.60       49           5.0       434
          H                   0.35       45           6.0       434
          Grid pruning is: on 
          Number of quadrature shells:    94
          Spatial weights used:  Erf1

          Convergence Information
          -----------------------
          Convergence aids based upon iterative change in 
          total energy or number of iterations. 
          Levelshifting, if invoked, occurs when the 
          HOMO/LUMO gap drops below (HL_TOL):  1.00D-02
          DIIS, if invoked, will attempt to extrapolate 
          using up to (NFOCK): 10 stored Fock matrices.

                    Damping( 0%)  Levelshifting(0.5)       DIIS
                  --------------- ------------------- ---------------
          dE  on:    start            ASAP                start   
          dE off:    2 iters         30 iters            30 iters 


      Screening Tolerance Information
      -------------------------------
          Density screening/tol_rho:  1.00D-10
          AO Gaussian exp screening on grid/accAOfunc:  14
          CD Gaussian exp screening on grid/accCDfunc:  20
          XC Gaussian exp screening on grid/accXCfunc:  20
          Schwarz screening/accCoul:  1.00D-08



                            NWChem DFT Gradient Module
                            --------------------------


                             Water in 6-31g basis set



  charge          =   0.00
  wavefunction    = closed shell

  Using symmetry


                         DFT ENERGY GRADIENTS

    atom               coordinates                        gradient
                 x          y          z           x          y          z
   1 O       0.000000   0.000000   0.221431    0.000000   0.000000  -0.013105
   2 H      -1.430428   0.000000  -0.885722    0.021588   0.000000   0.006552
   3 H       1.430428   0.000000  -0.885722   -0.021588   0.000000   0.006552

                 ----------------------------------------
                 |  Time  |  1-e(secs)   |  2-e(secs)   |
                 ----------------------------------------
                 |  CPU   |       0.00   |       0.00   |
                 ----------------------------------------
                 |  WALL  |       0.00   |       0.01   |
                 ----------------------------------------

@ Step       Energy      Delta E   Gmax     Grms     Xrms     Xmax   Walltime
@ ---- ---------------- -------- -------- -------- -------- -------- --------
@    0     -76.38491644  0.0D+00  0.02159  0.01150  0.00000  0.00000      0.4
                                                                    


                                 NWChem DFT Module
                                 -----------------


                             Water in 6-31g basis set




 Summary of "ao basis" -> "ao basis" (cartesian)
 ------------------------------------------------------------------------------
       Tag                 Description            Shells   Functions and Types
 ---------------- ------------------------------  ------  ---------------------
 H                           6-31g                   2        2   2s
 O                           6-31g                   5        9   3s2p


      Symmetry analysis of basis
      --------------------------

        a1          7
        a2          0
        b1          4
        b2          2

  Caching 1-el integrals 

            General Information
            -------------------
          SCF calculation type: DFT
          Wavefunction type:  closed shell.
          No. of atoms     :     3
          No. of electrons :    10
           Alpha electrons :     5
            Beta electrons :     5
          Charge           :     0
          Spin multiplicity:     1
          Use of symmetry is: on ; symmetry adaption is: on 
          Maximum number of iterations:  30
          AO basis - number of functions:    13
                     number of shells:     9
          Convergence on energy requested:  1.00D-06
          Convergence on density requested:  1.00D-05
          Convergence on gradient requested:  5.00D-04

              XC Information
              --------------
                         B3LYP Method XC Potential
                     Hartree-Fock (Exact) Exchange  0.200          
                        Slater Exchange Functional  0.800 local    
                    Becke 1988 Exchange Functional  0.720 non-local
              Lee-Yang-Parr Correlation Functional  0.810          
                  VWN I RPA Correlation Functional  0.190 local    

             Grid Information
             ----------------
          Grid used for XC integration:  medium    
          Radial quadrature: Mura-Knowles        
          Angular quadrature: Lebedev. 
          Tag              B.-S. Rad. Rad. Pts. Rad. Cut. Ang. Pts.
          ---              ---------- --------- --------- ---------
          O                   0.60       49           5.0       434
          H                   0.35       45           6.0       434
          Grid pruning is: on 
          Number of quadrature shells:    94
          Spatial weights used:  Erf1

          Convergence Information
          -----------------------
          Convergence aids based upon iterative change in 
          total energy or number of iterations. 
          Levelshifting, if invoked, occurs when the 
          HOMO/LUMO gap drops below (HL_TOL):  1.00D-02
          DIIS, if invoked, will attempt to extrapolate 
          using up to (NFOCK): 10 stored Fock matrices.

                    Damping( 0%)  Levelshifting(0.5)       DIIS
                  --------------- ------------------- ---------------
          dE  on:    start            ASAP                start   
          dE off:    2 iters         30 iters            30 iters 


      Screening Tolerance Information
      -------------------------------
          Density screening/tol_rho:  1.00D-10
          AO Gaussian exp screening on grid/accAOfunc:  14
          CD Gaussian exp screening on grid/accCDfunc:  20
          XC Gaussian exp screening on grid/accXCfunc:  20
          Schwarz screening/accCoul:  1.00D-08


 Loading old vectors from job with title :

Water in 6-31g basis set


      Symmetry analysis of molecular orbitals - initial
      -------------------------------------------------

  Numbering of irreducible representations: 

     1 a1          2 a2          3 b1          4 b2      

  Orbital symmetries:

     1 a1          2 a1          3 b1          4 a1          5 b2      
     6 a1          7 b1          8 b1          9 a1         10 b2      
    11 a1         12 b1         13 a1      

   Time after variat. SCF:      0.4
   Time prior to 1st pass:      0.4

 #quartets = 6.670D+02 #integrals = 1.513D+03 #direct =  0.0% #cached =100.0%


 Integral file          = ./h2o.aoints.0
 Record size in doubles =  65536        No. of integs per rec  =  43688
 Max. records in memory =      2        Max. records in file   = 463303
 No. of bits per label  =      8        No. of bits per value  =     64


File balance: exchanges=     0  moved=     0  time=   0.0


 Grid_pts file          = ./h2o.gridpts.0
 Record size in doubles =  12289        No. of grid_pts per rec  =   3070
 Max. records in memory =      5        Max. recs in file   =   2470751


           Memory utilization after 1st SCF pass: 
           Heap Space remaining (MW):       12.91            12913364
          Stack Space remaining (MW):       13.11            13106972

   convergence    iter        energy       DeltaE   RMS-Dens  Diis-err    time
 ---------------- ----- ----------------- --------- --------- ---------  ------
 d= 0,ls=0.0,diis     1    -76.3858348962 -8.54D+01  2.90D-03  2.01D-03     0.6
 d= 0,ls=0.0,diis     2    -76.3860474184 -2.13D-04  1.52D-03  7.34D-04     0.7
 d= 0,ls=0.0,diis     3    -76.3860867781 -3.94D-05  5.97D-04  2.94D-04     0.7
 d= 0,ls=0.0,diis     4    -76.3861134820 -2.67D-05  1.11D-05  3.75D-08     0.7
 d= 0,ls=0.0,diis     5    -76.3861134870 -4.95D-09  1.28D-06  7.05D-11     0.8


         Total DFT energy =      -76.386113486986
      One electron energy =     -122.728539064920
           Coulomb energy =       46.687884948759
    Exchange-Corr. energy =       -9.343209262829
 Nuclear repulsion energy =        8.997749892004

 Numeric. integr. density =       10.000001872909

     Total iterative time =      0.3s



                  Occupations of the irreducible representations
                  ----------------------------------------------

                     irrep           alpha         beta
                     --------     --------     --------
                     a1                3.0          3.0
                     a2                0.0          0.0
                     b1                1.0          1.0
                     b2                1.0          1.0


                       DFT Final Molecular Orbital Analysis
                       ------------------------------------

 Vector    1  Occ=2.000000D+00  E=-1.913396D+01  Symmetry=a1
              MO Center= -9.0D-19, -1.0D-28,  1.1D-01, r^2= 1.5D-02
   Bfn.  Coefficient  Atom+Function         Bfn.  Coefficient  Atom+Function  
  ----- ------------  ---------------      ----- ------------  ---------------
     1      0.995043  1 O  s                  2      0.027844  1 O  s          

 Vector    2  Occ=2.000000D+00  E=-1.005987D+00  Symmetry=a1
              MO Center=  1.6D-16,  2.5D-20, -1.1D-01, r^2= 5.1D-01
   Bfn.  Coefficient  Atom+Function         Bfn.  Coefficient  Atom+Function  
  ----- ------------  ---------------      ----- ------------  ---------------
     2      0.465931  1 O  s                  6      0.457717  1 O  s          
     1     -0.210416  1 O  s                 10      0.145973  2 H  s          
    12      0.145973  3 H  s                  5     -0.144455  1 O  pz         
     9     -0.068974  1 O  pz         

 Vector    3  Occ=2.000000D+00  E=-5.286444D-01  Symmetry=b1
              MO Center= -2.5D-16,  1.7D-32, -1.1D-01, r^2= 8.2D-01
   Bfn.  Coefficient  Atom+Function         Bfn.  Coefficient  Atom+Function  
  ----- ------------  ---------------      ----- ------------  ---------------
     3      0.512430  1 O  px                10     -0.265299  2 H  s          
    12      0.265299  3 H  s                  7      0.235975  1 O  px         
    11     -0.148901  2 H  s                 13      0.148901  3 H  s          

 Vector    4  Occ=2.000000D+00  E=-3.489469D-01  Symmetry=a1
              MO Center= -5.2D-17, -9.3D-33,  2.3D-01, r^2= 6.8D-01
   Bfn.  Coefficient  Atom+Function         Bfn.  Coefficient  Atom+Function  
  ----- ------------  ---------------      ----- ------------  ---------------
     5      0.548580  1 O  pz                 9      0.384665  1 O  pz         
     6      0.360513  1 O  s                  2      0.194721  1 O  s          
    10     -0.139195  2 H  s                 12     -0.139195  3 H  s          
    11     -0.107153  2 H  s                 13     -0.107153  3 H  s          
     1     -0.087377  1 O  s          

 Vector    5  Occ=2.000000D+00  E=-2.896035D-01  Symmetry=b2
              MO Center= -1.8D-32, -3.3D-17,  1.1D-01, r^2= 5.9D-01
   Bfn.  Coefficient  Atom+Function         Bfn.  Coefficient  Atom+Function  
  ----- ------------  ---------------      ----- ------------  ---------------
     4      0.646021  1 O  py                 8      0.505241  1 O  py         

 Vector    6  Occ=0.000000D+00  E= 5.236160D-02  Symmetry=a1
              MO Center=  3.5D-15,  1.3D-17, -5.7D-01, r^2= 2.4D+00
   Bfn.  Coefficient  Atom+Function         Bfn.  Coefficient  Atom+Function  
  ----- ------------  ---------------      ----- ------------  ---------------
     6      1.070524  1 O  s                 11     -0.924752  2 H  s          
    13     -0.924752  3 H  s                  9     -0.435582  1 O  pz         
     5     -0.290801  1 O  pz                 2      0.156839  1 O  s          
    10     -0.108257  2 H  s                 12     -0.108257  3 H  s          
     1     -0.089289  1 O  s          

 Vector    7  Occ=0.000000D+00  E= 1.418381D-01  Symmetry=b1
              MO Center= -3.6D-15,  9.9D-32, -5.4D-01, r^2= 2.5D+00
   Bfn.  Coefficient  Atom+Function         Bfn.  Coefficient  Atom+Function  
  ----- ------------  ---------------      ----- ------------  ---------------
    11      1.245504  2 H  s                 13     -1.245504  3 H  s          
     7      0.755527  1 O  px                 3      0.422861  1 O  px         
    10      0.097198  2 H  s                 12     -0.097198  3 H  s          

 Vector    8  Occ=0.000000D+00  E= 8.203437D-01  Symmetry=b1
              MO Center= -9.0D-15, -1.0D-29, -2.4D-01, r^2= 1.7D+00
   Bfn.  Coefficient  Atom+Function         Bfn.  Coefficient  Atom+Function  
  ----- ------------  ---------------      ----- ------------  ---------------
    10      0.975144  2 H  s                 12     -0.975144  3 H  s          
    11     -0.716252  2 H  s                 13      0.716252  3 H  s          
     7      0.428259  1 O  px                 3      0.251371  1 O  px         

 Vector    9  Occ=0.000000D+00  E= 8.501274D-01  Symmetry=a1
              MO Center=  8.8D-15,  1.2D-17, -3.4D-01, r^2= 1.4D+00
   Bfn.  Coefficient  Atom+Function         Bfn.  Coefficient  Atom+Function  
  ----- ------------  ---------------      ----- ------------  ---------------
    10      0.822588  2 H  s                 12      0.822588  3 H  s          
     5      0.638935  1 O  pz                11     -0.628824  2 H  s          
    13     -0.628824  3 H  s                  9     -0.286008  1 O  pz         
     6      0.272452  1 O  s                  2     -0.228072  1 O  s          
     1      0.043080  1 O  s          

 Vector   10  Occ=0.000000D+00  E= 8.904698D-01  Symmetry=b2
              MO Center= -3.0D-35,  2.8D-21,  1.1D-01, r^2= 1.1D+00
   Bfn.  Coefficient  Atom+Function         Bfn.  Coefficient  Atom+Function  
  ----- ------------  ---------------      ----- ------------  ---------------
     8     -1.039605  1 O  py                 4      0.958490  1 O  py         

 Vector   11  Occ=0.000000D+00  E= 9.451939D-01  Symmetry=a1
              MO Center=  5.7D-16, -2.4D-18,  2.4D-01, r^2= 1.3D+00
   Bfn.  Coefficient  Atom+Function         Bfn.  Coefficient  Atom+Function  
  ----- ------------  ---------------      ----- ------------  ---------------
     9      1.168650  1 O  pz                 5     -0.724392  1 O  pz         
    10      0.529053  2 H  s                 12      0.529053  3 H  s          
     2     -0.401973  1 O  s                 11     -0.085358  2 H  s          
    13     -0.085358  3 H  s                  1      0.067842  1 O  s          
     6      0.044976  1 O  s          

 Vector   12  Occ=0.000000D+00  E= 1.070729D+00  Symmetry=b1
              MO Center= -8.1D-16,  9.9D-32,  1.5D-01, r^2= 1.5D+00
   Bfn.  Coefficient  Atom+Function         Bfn.  Coefficient  Atom+Function  
  ----- ------------  ---------------      ----- ------------  ---------------
     7      1.708421  1 O  px                 3     -0.972316  1 O  px         
    11      0.858825  2 H  s                 13     -0.858825  3 H  s          
    10      0.092327  2 H  s                 12     -0.092327  3 H  s          

 Vector   13  Occ=0.000000D+00  E= 1.409097D+00  Symmetry=a1
              MO Center=  0.0D+00,  1.1D-17, -2.1D-01, r^2= 1.2D+00
   Bfn.  Coefficient  Atom+Function         Bfn.  Coefficient  Atom+Function  
  ----- ------------  ---------------      ----- ------------  ---------------
     6      2.704468  1 O  s                  2     -1.674548  1 O  s          
     9     -0.793610  1 O  pz                11     -0.613053  2 H  s          
    13     -0.613053  3 H  s                 10     -0.423595  2 H  s          
    12     -0.423595  3 H  s                  5      0.180195  1 O  pz         
     1      0.058842  1 O  s          


 center of mass
 --------------
 x =   0.00000000 y =   0.00000000 z =   0.08481036

 moments of inertia (a.u.)
 ------------------
           2.104345307618           0.000000000000           0.000000000000
           0.000000000000           6.610021434449           0.000000000000
           0.000000000000           0.000000000000           4.505676126830

     Multipole analysis of the density
     ---------------------------------

     L   x y z        total         alpha         beta         nuclear
     -   - - -        -----         -----         ----         -------
     0   0 0 0     -0.000000     -5.000000     -5.000000     10.000000

     1   1 0 0     -0.000000     -0.000000     -0.000000      0.000000
     1   0 1 0      0.000000      0.000000      0.000000      0.000000
     1   0 0 1     -0.944684     -0.418869     -0.418869     -0.106946

     2   2 0 0     -3.064983     -3.767838     -3.767838      4.470693
     2   1 1 0     -0.000000     -0.000000     -0.000000      0.000000
     2   1 0 1     -0.000000     -0.000000     -0.000000      0.000000
     2   0 2 0     -5.356457     -2.678228     -2.678228      0.000000
     2   0 1 1      0.000000      0.000000      0.000000      0.000000
     2   0 0 2     -4.619564     -3.250807     -3.250807      1.882051


 Parallel integral file used       4 records with       0 large values

 Line search: 
     step= 1.00 grad=-2.5D-03 hess= 1.3D-03 energy=    -76.386113 mode=accept  
 new step= 1.00                   predicted energy=    -76.386113

          --------
          Step   1
          --------


                         Geometry "geometry" -> "geometry"
                         ---------------------------------

 Output coordinates in a.u. (scale by  1.000000000 to convert to a.u.)

  No.       Tag          Charge          X              Y              Z
 ---- ---------------- ---------- -------------- -------------- --------------
    1 O                    8.0000     0.00000000     0.00000000     0.20615247
    2 H                    1.0000    -1.49510751     0.00000000    -0.87808310
    3 H                    1.0000     1.49510751     0.00000000    -0.87808310

      Atomic Mass 
      ----------- 

      O                 15.994910
      H                  1.007825


 Effective nuclear repulsion energy (a.u.)       8.9977498920

            Nuclear Dipole moment (a.u.) 
            ----------------------------
        X                 Y               Z
 ---------------- ---------------- ----------------
     0.0000000000     0.0000000000    -0.1069464375

      Symmetry information
      --------------------

 Group name             C2v       
 Group number             16
 Group order               4
 No. of unique centers     2

      Symmetry unique atoms

     1    2


                                 NWChem DFT Module
                                 -----------------


                             Water in 6-31g basis set




 Summary of "ao basis" -> "ao basis" (cartesian)
 ------------------------------------------------------------------------------
       Tag                 Description            Shells   Functions and Types
 ---------------- ------------------------------  ------  ---------------------
 H                           6-31g                   2        2   2s
 O                           6-31g                   5        9   3s2p


      Symmetry analysis of basis
      --------------------------

        a1          7
        a2          0
        b1          4
        b2          2


  The DFT is already converged 

         Total DFT energy =    -76.386113486986


            General Information
            -------------------
          SCF calculation type: DFT
          Wavefunction type:  closed shell.
          No. of atoms     :     3
          No. of electrons :    10
           Alpha electrons :     5
            Beta electrons :     5
          Charge           :     0
          Spin multiplicity:     1
          Use of symmetry is: on ; symmetry adaption is: on 
          Maximum number of iterations:  30
          AO basis - number of functions:    13
                     number of shells:     9
          Convergence on energy requested:  1.00D-06
          Convergence on density requested:  1.00D-05
          Convergence on gradient requested:  5.00D-04

              XC Information
              --------------
                         B3LYP Method XC Potential
                     Hartree-Fock (Exact) Exchange  0.200          
                        Slater Exchange Functional  0.800 local    
                    Becke 1988 Exchange Functional  0.720 non-local
              Lee-Yang-Parr Correlation Functional  0.810          
                  VWN I RPA Correlation Functional  0.190 local    

             Grid Information
             ----------------
          Grid used for XC integration:  medium    
          Radial quadrature: Mura-Knowles        
          Angular quadrature: Lebedev. 
          Tag              B.-S. Rad. Rad. Pts. Rad. Cut. Ang. Pts.
          ---              ---------- --------- --------- ---------
          O                   0.60       49           5.0       434
          H                   0.35       45           6.0       434
          Grid pruning is: on 
          Number of quadrature shells:    94
          Spatial weights used:  Erf1

          Convergence Information
          -----------------------
          Convergence aids based upon iterative change in 
          total energy or number of iterations. 
          Levelshifting, if invoked, occurs when the 
          HOMO/LUMO gap drops below (HL_TOL):  1.00D-02
          DIIS, if invoked, will attempt to extrapolate 
          using up to (NFOCK): 10 stored Fock matrices.

                    Damping( 0%)  Levelshifting(0.5)       DIIS
                  --------------- ------------------- ---------------
          dE  on:    start            ASAP                start   
          dE off:    2 iters         30 iters            30 iters 


      Screening Tolerance Information
      -------------------------------
          Density screening/tol_rho:  1.00D-10
          AO Gaussian exp screening on grid/accAOfunc:  14
          CD Gaussian exp screening on grid/accCDfunc:  20
          XC Gaussian exp screening on grid/accXCfunc:  20
          Schwarz screening/accCoul:  1.00D-08



                            NWChem DFT Gradient Module
                            --------------------------


                             Water in 6-31g basis set



  charge          =   0.00
  wavefunction    = closed shell

  Using symmetry


                         DFT ENERGY GRADIENTS

    atom               coordinates                        gradient
                 x          y          z           x          y          z
   1 O       0.000000   0.000000   0.206152    0.000000   0.000000   0.001661
   2 H      -1.495108   0.000000  -0.878083   -0.000834   0.000000  -0.000831
   3 H       1.495108   0.000000  -0.878083    0.000834   0.000000  -0.000831

                 ----------------------------------------
                 |  Time  |  1-e(secs)   |  2-e(secs)   |
                 ----------------------------------------
                 |  CPU   |       0.00   |       0.01   |
                 ----------------------------------------
                 |  WALL  |       0.00   |       0.01   |
                 ----------------------------------------

  Step       Energy      Delta E   Gmax     Grms     Xrms     Xmax   Walltime
  ---- ---------------- -------- -------- -------- -------- -------- --------
@    1     -76.38611349 -1.2D-03  0.00166  0.00078  0.03112  0.06468      0.8
                                                                    


                                 NWChem DFT Module
                                 -----------------


                             Water in 6-31g basis set




 Summary of "ao basis" -> "ao basis" (cartesian)
 ------------------------------------------------------------------------------
       Tag                 Description            Shells   Functions and Types
 ---------------- ------------------------------  ------  ---------------------
 H                           6-31g                   2        2   2s
 O                           6-31g                   5        9   3s2p


      Symmetry analysis of basis
      --------------------------

        a1          7
        a2          0
        b1          4
        b2          2

  Caching 1-el integrals 

            General Information
            -------------------
          SCF calculation type: DFT
          Wavefunction type:  closed shell.
          No. of atoms     :     3
          No. of electrons :    10
           Alpha electrons :     5
            Beta electrons :     5
          Charge           :     0
          Spin multiplicity:     1
          Use of symmetry is: on ; symmetry adaption is: on 
          Maximum number of iterations:  30
          AO basis - number of functions:    13
                     number of shells:     9
          Convergence on energy requested:  1.00D-06
          Convergence on density requested:  1.00D-05
          Convergence on gradient requested:  5.00D-04

              XC Information
              --------------
                         B3LYP Method XC Potential
                     Hartree-Fock (Exact) Exchange  0.200          
                        Slater Exchange Functional  0.800 local    
                    Becke 1988 Exchange Functional  0.720 non-local
              Lee-Yang-Parr Correlation Functional  0.810          
                  VWN I RPA Correlation Functional  0.190 local    

             Grid Information
             ----------------
          Grid used for XC integration:  medium    
          Radial quadrature: Mura-Knowles        
          Angular quadrature: Lebedev. 
          Tag              B.-S. Rad. Rad. Pts. Rad. Cut. Ang. Pts.
          ---              ---------- --------- --------- ---------
          O                   0.60       49           5.0       434
          H                   0.35       45           6.0       434
          Grid pruning is: on 
          Number of quadrature shells:    94
          Spatial weights used:  Erf1

          Convergence Information
          -----------------------
          Convergence aids based upon iterative change in 
          total energy or number of iterations. 
          Levelshifting, if invoked, occurs when the 
          HOMO/LUMO gap drops below (HL_TOL):  1.00D-02
          DIIS, if invoked, will attempt to extrapolate 
          using up to (NFOCK): 10 stored Fock matrices.

                    Damping( 0%)  Levelshifting(0.5)       DIIS
                  --------------- ------------------- ---------------
          dE  on:    start            ASAP                start   
          dE off:    2 iters         30 iters            30 iters 


      Screening Tolerance Information
      -------------------------------
          Density screening/tol_rho:  1.00D-10
          AO Gaussian exp screening on grid/accAOfunc:  14
          CD Gaussian exp screening on grid/accCDfunc:  20
          XC Gaussian exp screening on grid/accXCfunc:  20
          Schwarz screening/accCoul:  1.00D-08


 Loading old vectors from job with title :

Water in 6-31g basis set


      Symmetry analysis of molecular orbitals - initial
      -------------------------------------------------

  Numbering of irreducible representations: 

     1 a1          2 a2          3 b1          4 b2      

  Orbital symmetries:

     1 a1          2 a1          3 b1          4 a1          5 b2      
     6 a1          7 b1          8 b1          9 a1         10 b2      
    11 a1         12 b1         13 a1      

   Time after variat. SCF:      0.8
   Time prior to 1st pass:      0.8

 #quartets = 6.670D+02 #integrals = 1.513D+03 #direct =  0.0% #cached =100.0%


 Integral file          = ./h2o.aoints.0
 Record size in doubles =  65536        No. of integs per rec  =  43688
 Max. records in memory =      2        Max. records in file   = 463303
 No. of bits per label  =      8        No. of bits per value  =     64


File balance: exchanges=     0  moved=     0  time=   0.0


 Grid_pts file          = ./h2o.gridpts.0
 Record size in doubles =  12289        No. of grid_pts per rec  =   3070
 Max. records in memory =      5        Max. recs in file   =   2470751


           Memory utilization after 1st SCF pass: 
           Heap Space remaining (MW):       12.91            12913364
          Stack Space remaining (MW):       13.11            13106972

   convergence    iter        energy       DeltaE   RMS-Dens  Diis-err    time
 ---------------- ----- ----------------- --------- --------- ---------  ------
 d= 0,ls=0.0,diis     1    -76.3861151086 -8.54D+01  3.49D-04  1.11D-05     0.9
 d= 0,ls=0.0,diis     2    -76.3861166386 -1.53D-06  1.23D-04  7.13D-06     1.0
 d= 0,ls=0.0,diis     3    -76.3861171665 -5.28D-07  4.43D-05  1.15D-06     1.0
 d= 0,ls=0.0,diis     4    -76.3861172752 -1.09D-07  1.37D-06  4.95D-10     1.0


         Total DFT energy =      -76.386117275211
      One electron energy =     -122.751499835848
           Coulomb energy =       46.699905590481
    Exchange-Corr. energy =       -9.344531676973
 Nuclear repulsion energy =        9.010008647129

 Numeric. integr. density =       10.000001895389

     Total iterative time =      0.2s



                  Occupations of the irreducible representations
                  ----------------------------------------------

                     irrep           alpha         beta
                     --------     --------     --------
                     a1                3.0          3.0
                     a2                0.0          0.0
                     b1                1.0          1.0
                     b2                1.0          1.0


                       DFT Final Molecular Orbital Analysis
                       ------------------------------------

 Vector    1  Occ=2.000000D+00  E=-1.913357D+01  Symmetry=a1
              MO Center=  5.1D-19, -5.8D-30,  1.1D-01, r^2= 1.5D-02
   Bfn.  Coefficient  Atom+Function         Bfn.  Coefficient  Atom+Function  
  ----- ------------  ---------------      ----- ------------  ---------------
     1      0.995042  1 O  s                  2      0.027849  1 O  s          

 Vector    2  Occ=2.000000D+00  E=-1.006365D+00  Symmetry=a1
              MO Center=  2.7D-16, -5.8D-18, -1.1D-01, r^2= 5.1D-01
   Bfn.  Coefficient  Atom+Function         Bfn.  Coefficient  Atom+Function  
  ----- ------------  ---------------      ----- ------------  ---------------
     2      0.465910  1 O  s                  6      0.457292  1 O  s          
     1     -0.210409  1 O  s                 10      0.146267  2 H  s          
    12      0.146267  3 H  s                  5     -0.144489  1 O  pz         
     9     -0.068791  1 O  pz         

 Vector    3  Occ=2.000000D+00  E=-5.294853D-01  Symmetry=b1
              MO Center= -3.2D-16, -2.8D-32, -1.2D-01, r^2= 8.2D-01
   Bfn.  Coefficient  Atom+Function         Bfn.  Coefficient  Atom+Function  
  ----- ------------  ---------------      ----- ------------  ---------------
     3      0.512524  1 O  px                10     -0.265568  2 H  s          
    12      0.265568  3 H  s                  7      0.235443  1 O  px         
    11     -0.148457  2 H  s                 13      0.148457  3 H  s          

 Vector    4  Occ=2.000000D+00  E=-3.485683D-01  Symmetry=a1
              MO Center=  5.6D-17, -6.7D-33,  2.3D-01, r^2= 6.8D-01
   Bfn.  Coefficient  Atom+Function         Bfn.  Coefficient  Atom+Function  
  ----- ------------  ---------------      ----- ------------  ---------------
     5      0.549028  1 O  pz                 9      0.385296  1 O  pz         
     6      0.360086  1 O  s                  2      0.194465  1 O  s          
    10     -0.138775  2 H  s                 12     -0.138775  3 H  s          
    11     -0.106625  2 H  s                 13     -0.106625  3 H  s          
     1     -0.087263  1 O  s          

 Vector    5  Occ=2.000000D+00  E=-2.896014D-01  Symmetry=b2
              MO Center=  1.6D-32, -2.3D-17,  1.1D-01, r^2= 5.9D-01
   Bfn.  Coefficient  Atom+Function         Bfn.  Coefficient  Atom+Function  
  ----- ------------  ---------------      ----- ------------  ---------------
     4      0.645953  1 O  py                 8      0.505315  1 O  py         

 Vector    6  Occ=0.000000D+00  E= 5.279034D-02  Symmetry=a1
              MO Center= -5.6D-17,  2.0D-17, -5.7D-01, r^2= 2.4D+00
   Bfn.  Coefficient  Atom+Function         Bfn.  Coefficient  Atom+Function  
  ----- ------------  ---------------      ----- ------------  ---------------
     6      1.073542  1 O  s                 11     -0.926182  2 H  s          
    13     -0.926182  3 H  s                  9     -0.434598  1 O  pz         
     5     -0.289755  1 O  pz                 2      0.156997  1 O  s          
    10     -0.108091  2 H  s                 12     -0.108091  3 H  s          
     1     -0.089425  1 O  s          

 Vector    7  Occ=0.000000D+00  E= 1.423961D-01  Symmetry=b1
              MO Center= -2.2D-16, -3.1D-32, -5.4D-01, r^2= 2.5D+00
   Bfn.  Coefficient  Atom+Function         Bfn.  Coefficient  Atom+Function  
  ----- ------------  ---------------      ----- ------------  ---------------
    11      1.248258  2 H  s                 13     -1.248258  3 H  s          
     7      0.756645  1 O  px                 3      0.422297  1 O  px         
    10      0.096344  2 H  s                 12     -0.096344  3 H  s          

 Vector    8  Occ=0.000000D+00  E= 8.220064D-01  Symmetry=b1
              MO Center= -4.5D-15,  1.3D-30, -2.4D-01, r^2= 1.7D+00
   Bfn.  Coefficient  Atom+Function         Bfn.  Coefficient  Atom+Function  
  ----- ------------  ---------------      ----- ------------  ---------------
    10      0.976203  2 H  s                 12     -0.976203  3 H  s          
    11     -0.711449  2 H  s                 13      0.711449  3 H  s          
     7      0.434412  1 O  px                 3      0.251857  1 O  px         

 Vector    9  Occ=0.000000D+00  E= 8.509994D-01  Symmetry=a1
              MO Center=  4.0D-15, -1.7D-17, -3.4D-01, r^2= 1.4D+00
   Bfn.  Coefficient  Atom+Function         Bfn.  Coefficient  Atom+Function  
  ----- ------------  ---------------      ----- ------------  ---------------
    10      0.824204  2 H  s                 12      0.824204  3 H  s          
     5      0.638114  1 O  pz                11     -0.627283  2 H  s          
    13     -0.627283  3 H  s                  9     -0.283148  1 O  pz         
     6      0.267687  1 O  s                  2     -0.227498  1 O  s          
     1      0.043256  1 O  s          

 Vector   10  Occ=0.000000D+00  E= 8.905287D-01  Symmetry=b2
              MO Center=  1.1D-35,  1.3D-21,  1.1D-01, r^2= 1.1D+00
   Bfn.  Coefficient  Atom+Function         Bfn.  Coefficient  Atom+Function  
  ----- ------------  ---------------      ----- ------------  ---------------
     8     -1.039569  1 O  py                 4      0.958536  1 O  py         

 Vector   11  Occ=0.000000D+00  E= 9.446175D-01  Symmetry=a1
              MO Center=  4.1D-16, -5.1D-18,  2.4D-01, r^2= 1.3D+00
   Bfn.  Coefficient  Atom+Function         Bfn.  Coefficient  Atom+Function  
  ----- ------------  ---------------      ----- ------------  ---------------
     9      1.170239  1 O  pz                 5     -0.725457  1 O  pz         
    10      0.528755  2 H  s                 12      0.528755  3 H  s          
     2     -0.397991  1 O  s                 11     -0.083083  2 H  s          
    13     -0.083083  3 H  s                  1      0.067670  1 O  s          
     6      0.037492  1 O  s          

 Vector   12  Occ=0.000000D+00  E= 1.071195D+00  Symmetry=b1
              MO Center= -1.1D-15,  1.4D-31,  1.5D-01, r^2= 1.5D+00
   Bfn.  Coefficient  Atom+Function         Bfn.  Coefficient  Atom+Function  
  ----- ------------  ---------------      ----- ------------  ---------------
     7      1.710786  1 O  px                 3     -0.972648  1 O  px         
    11      0.862226  2 H  s                 13     -0.862226  3 H  s          
    10      0.091554  2 H  s                 12     -0.091554  3 H  s          

 Vector   13  Occ=0.000000D+00  E= 1.408681D+00  Symmetry=a1
              MO Center=  1.5D-15,  3.0D-17, -2.1D-01, r^2= 1.2D+00
   Bfn.  Coefficient  Atom+Function         Bfn.  Coefficient  Atom+Function  
  ----- ------------  ---------------      ----- ------------  ---------------
     6      2.708354  1 O  s                  2     -1.675885  1 O  s          
     9     -0.789957  1 O  pz                11     -0.615639  2 H  s          
    13     -0.615639  3 H  s                 10     -0.420915  2 H  s          
    12     -0.420915  3 H  s                  5      0.178643  1 O  pz         
     1      0.058977  1 O  s          


 center of mass
 --------------
 x =   0.00000000 y =   0.00000000 z =   0.08248555

 moments of inertia (a.u.)
 ------------------
           2.088109597009           0.000000000000           0.000000000000
           0.000000000000           6.592714424247           0.000000000000
           0.000000000000           0.000000000000           4.504604827237

     Multipole analysis of the density
     ---------------------------------

     L   x y z        total         alpha         beta         nuclear
     -   - - -        -----         -----         ----         -------
     0   0 0 0     -0.000000     -5.000000     -5.000000     10.000000

     1   1 0 0      0.000000      0.000000      0.000000      0.000000
     1   0 1 0     -0.000000     -0.000000     -0.000000      0.000000
     1   0 0 1     -0.943662     -0.408580     -0.408580     -0.126503

     2   2 0 0     -3.059415     -3.764523     -3.764523      4.469630
     2   1 1 0     -0.000000     -0.000000     -0.000000      0.000000
     2   1 0 1      0.000000      0.000000      0.000000      0.000000
     2   0 2 0     -5.354369     -2.677184     -2.677184      0.000000
     2   0 1 1      0.000000      0.000000      0.000000      0.000000
     2   0 0 2     -4.618835     -3.243415     -3.243415      1.867995


 Parallel integral file used       4 records with       0 large values

 Line search: 
     step= 1.00 grad=-7.3D-06 hess= 3.5D-06 energy=    -76.386117 mode=accept  
 new step= 1.00                   predicted energy=    -76.386117

          --------
          Step   2
          --------


                         Geometry "geometry" -> "geometry"
                         ---------------------------------

 Output coordinates in a.u. (scale by  1.000000000 to convert to a.u.)

  No.       Tag          Charge          X              Y              Z
 ---- ---------------- ---------- -------------- -------------- --------------
    1 O                    8.0000     0.00000000     0.00000000     0.20335866
    2 H                    1.0000    -1.49492976     0.00000000    -0.87668619
    3 H                    1.0000     1.49492976     0.00000000    -0.87668619

      Atomic Mass 
      ----------- 

      O                 15.994910
      H                  1.007825


 Effective nuclear repulsion energy (a.u.)       9.0100086471

            Nuclear Dipole moment (a.u.) 
            ----------------------------
        X                 Y               Z
 ---------------- ---------------- ----------------
     0.0000000000     0.0000000000    -0.1265031047

      Symmetry information
      --------------------

 Group name             C2v       
 Group number             16
 Group order               4
 No. of unique centers     2

      Symmetry unique atoms

     1    2


                                 NWChem DFT Module
                                 -----------------


                             Water in 6-31g basis set




 Summary of "ao basis" -> "ao basis" (cartesian)
 ------------------------------------------------------------------------------
       Tag                 Description            Shells   Functions and Types
 ---------------- ------------------------------  ------  ---------------------
 H                           6-31g                   2        2   2s
 O                           6-31g                   5        9   3s2p


      Symmetry analysis of basis
      --------------------------

        a1          7
        a2          0
        b1          4
        b2          2


  The DFT is already converged 

         Total DFT energy =    -76.386117275211


            General Information
            -------------------
          SCF calculation type: DFT
          Wavefunction type:  closed shell.
          No. of atoms     :     3
          No. of electrons :    10
           Alpha electrons :     5
            Beta electrons :     5
          Charge           :     0
          Spin multiplicity:     1
          Use of symmetry is: on ; symmetry adaption is: on 
          Maximum number of iterations:  30
          AO basis - number of functions:    13
                     number of shells:     9
          Convergence on energy requested:  1.00D-06
          Convergence on density requested:  1.00D-05
          Convergence on gradient requested:  5.00D-04

              XC Information
              --------------
                         B3LYP Method XC Potential
                     Hartree-Fock (Exact) Exchange  0.200          
                        Slater Exchange Functional  0.800 local    
                    Becke 1988 Exchange Functional  0.720 non-local
              Lee-Yang-Parr Correlation Functional  0.810          
                  VWN I RPA Correlation Functional  0.190 local    

             Grid Information
             ----------------
          Grid used for XC integration:  medium    
          Radial quadrature: Mura-Knowles        
          Angular quadrature: Lebedev. 
          Tag              B.-S. Rad. Rad. Pts. Rad. Cut. Ang. Pts.
          ---              ---------- --------- --------- ---------
          O                   0.60       49           5.0       434
          H                   0.35       45           6.0       434
          Grid pruning is: on 
          Number of quadrature shells:    94
          Spatial weights used:  Erf1

          Convergence Information
          -----------------------
          Convergence aids based upon iterative change in 
          total energy or number of iterations. 
          Levelshifting, if invoked, occurs when the 
          HOMO/LUMO gap drops below (HL_TOL):  1.00D-02
          DIIS, if invoked, will attempt to extrapolate 
          using up to (NFOCK): 10 stored Fock matrices.

                    Damping( 0%)  Levelshifting(0.5)       DIIS
                  --------------- ------------------- ---------------
          dE  on:    start            ASAP                start   
          dE off:    2 iters         30 iters            30 iters 


      Screening Tolerance Information
      -------------------------------
          Density screening/tol_rho:  1.00D-10
          AO Gaussian exp screening on grid/accAOfunc:  14
          CD Gaussian exp screening on grid/accCDfunc:  20
          XC Gaussian exp screening on grid/accXCfunc:  20
          Schwarz screening/accCoul:  1.00D-08



                            NWChem DFT Gradient Module
                            --------------------------


                             Water in 6-31g basis set



  charge          =   0.00
  wavefunction    = closed shell

  Using symmetry


                         DFT ENERGY GRADIENTS

    atom               coordinates                        gradient
                 x          y          z           x          y          z
   1 O       0.000000   0.000000   0.203359    0.000000   0.000000   0.000069
   2 H      -1.494930   0.000000  -0.876686   -0.000073   0.000000  -0.000034
   3 H       1.494930   0.000000  -0.876686    0.000073   0.000000  -0.000034

                 ----------------------------------------
                 |  Time  |  1-e(secs)   |  2-e(secs)   |
                 ----------------------------------------
                 |  CPU   |       0.00   |       0.01   |
                 ----------------------------------------
                 |  WALL  |       0.00   |       0.01   |
                 ----------------------------------------

  Step       Energy      Delta E   Gmax     Grms     Xrms     Xmax   Walltime
  ---- ---------------- -------- -------- -------- -------- -------- --------
@    2     -76.38611728 -3.8D-06  0.00007  0.00004  0.00114  0.00279      1.1
                                     ok       ok       ok           


                                 NWChem DFT Module
                                 -----------------


                             Water in 6-31g basis set




 Summary of "ao basis" -> "ao basis" (cartesian)
 ------------------------------------------------------------------------------
       Tag                 Description            Shells   Functions and Types
 ---------------- ------------------------------  ------  ---------------------
 H                           6-31g                   2        2   2s
 O                           6-31g                   5        9   3s2p


      Symmetry analysis of basis
      --------------------------

        a1          7
        a2          0
        b1          4
        b2          2

  Caching 1-el integrals 

            General Information
            -------------------
          SCF calculation type: DFT
          Wavefunction type:  closed shell.
          No. of atoms     :     3
          No. of electrons :    10
           Alpha electrons :     5
            Beta electrons :     5
          Charge           :     0
          Spin multiplicity:     1
          Use of symmetry is: on ; symmetry adaption is: on 
          Maximum number of iterations:  30
          AO basis - number of functions:    13
                     number of shells:     9
          Convergence on energy requested:  1.00D-06
          Convergence on density requested:  1.00D-05
          Convergence on gradient requested:  5.00D-04

              XC Information
              --------------
                         B3LYP Method XC Potential
                     Hartree-Fock (Exact) Exchange  0.200          
                        Slater Exchange Functional  0.800 local    
                    Becke 1988 Exchange Functional  0.720 non-local
              Lee-Yang-Parr Correlation Functional  0.810          
                  VWN I RPA Correlation Functional  0.190 local    

             Grid Information
             ----------------
          Grid used for XC integration:  medium    
          Radial quadrature: Mura-Knowles        
          Angular quadrature: Lebedev. 
          Tag              B.-S. Rad. Rad. Pts. Rad. Cut. Ang. Pts.
          ---              ---------- --------- --------- ---------
          O                   0.60       49           5.0       434
          H                   0.35       45           6.0       434
          Grid pruning is: on 
          Number of quadrature shells:    94
          Spatial weights used:  Erf1

          Convergence Information
          -----------------------
          Convergence aids based upon iterative change in 
          total energy or number of iterations. 
          Levelshifting, if invoked, occurs when the 
          HOMO/LUMO gap drops below (HL_TOL):  1.00D-02
          DIIS, if invoked, will attempt to extrapolate 
          using up to (NFOCK): 10 stored Fock matrices.

                    Damping( 0%)  Levelshifting(0.5)       DIIS
                  --------------- ------------------- ---------------
          dE  on:    start            ASAP                start   
          dE off:    2 iters         30 iters            30 iters 


      Screening Tolerance Information
      -------------------------------
          Density screening/tol_rho:  1.00D-10
          AO Gaussian exp screening on grid/accAOfunc:  14
          CD Gaussian exp screening on grid/accCDfunc:  20
          XC Gaussian exp screening on grid/accXCfunc:  20
          Schwarz screening/accCoul:  1.00D-08


 Loading old vectors from job with title :

Water in 6-31g basis set


      Symmetry analysis of molecular orbitals - initial
      -------------------------------------------------

  Numbering of irreducible representations: 

     1 a1          2 a2          3 b1          4 b2      

  Orbital symmetries:

     1 a1          2 a1          3 b1          4 a1          5 b2      
     6 a1          7 b1          8 b1          9 a1         10 b2      
    11 a1         12 b1         13 a1      

   Time after variat. SCF:      1.1
   Time prior to 1st pass:      1.1

 #quartets = 6.670D+02 #integrals = 1.513D+03 #direct =  0.0% #cached =100.0%


 Integral file          = ./h2o.aoints.0
 Record size in doubles =  65536        No. of integs per rec  =  43688
 Max. records in memory =      2        Max. records in file   = 463303
 No. of bits per label  =      8        No. of bits per value  =     64


File balance: exchanges=     0  moved=     0  time=   0.0


 Grid_pts file          = ./h2o.gridpts.0
 Record size in doubles =  12289        No. of grid_pts per rec  =   3070
 Max. records in memory =      5        Max. recs in file   =   2470751


           Memory utilization after 1st SCF pass: 
           Heap Space remaining (MW):       12.91            12913364
          Stack Space remaining (MW):       13.11            13106972

   convergence    iter        energy       DeltaE   RMS-Dens  Diis-err    time
 ---------------- ----- ----------------- --------- --------- ---------  ------
 d= 0,ls=0.0,diis     1    -76.3861172850 -8.54D+01  1.24D-05  2.82D-08     1.2
 d= 0,ls=0.0,diis     2    -76.3861172874 -2.44D-09  6.27D-06  1.77D-08     1.2


         Total DFT energy =      -76.386117287424
      One electron energy =     -122.753130863779
           Coulomb energy =       46.700858298440
    Exchange-Corr. energy =       -9.344644798564
 Nuclear repulsion energy =        9.010800076479

 Numeric. integr. density =       10.000001897900

     Total iterative time =      0.1s



                  Occupations of the irreducible representations
                  ----------------------------------------------

                     irrep           alpha         beta
                     --------     --------     --------
                     a1                3.0          3.0
                     a2                0.0          0.0
                     b1                1.0          1.0
                     b2                1.0          1.0


                       DFT Final Molecular Orbital Analysis
                       ------------------------------------

 Vector    1  Occ=2.000000D+00  E=-1.913354D+01  Symmetry=a1
              MO Center= -5.7D-19,  4.2D-26,  1.1D-01, r^2= 1.5D-02
   Bfn.  Coefficient  Atom+Function         Bfn.  Coefficient  Atom+Function  
  ----- ------------  ---------------      ----- ------------  ---------------
     1      0.995042  1 O  s                  2      0.027850  1 O  s          

 Vector    2  Occ=2.000000D+00  E=-1.006403D+00  Symmetry=a1
              MO Center=  1.3D-16, -1.9D-17, -1.1D-01, r^2= 5.1D-01
   Bfn.  Coefficient  Atom+Function         Bfn.  Coefficient  Atom+Function  
  ----- ------------  ---------------      ----- ------------  ---------------
     2      0.465901  1 O  s                  6      0.457257  1 O  s          
     1     -0.210406  1 O  s                 10      0.146289  2 H  s          
    12      0.146289  3 H  s                  5     -0.144513  1 O  pz         
     9     -0.068789  1 O  pz         

 Vector    3  Occ=2.000000D+00  E=-5.295080D-01  Symmetry=b1
              MO Center=  6.9D-17, -4.0D-32, -1.2D-01, r^2= 8.2D-01
   Bfn.  Coefficient  Atom+Function         Bfn.  Coefficient  Atom+Function  
  ----- ------------  ---------------      ----- ------------  ---------------
     3      0.512533  1 O  px                10     -0.265582  2 H  s          
    12      0.265582  3 H  s                  7      0.235424  1 O  px         
    11     -0.148450  2 H  s                 13      0.148450  3 H  s          

 Vector    4  Occ=2.000000D+00  E=-3.485745D-01  Symmetry=a1
              MO Center= -9.9D-17, -7.3D-17,  2.3D-01, r^2= 6.8D-01
   Bfn.  Coefficient  Atom+Function         Bfn.  Coefficient  Atom+Function  
  ----- ------------  ---------------      ----- ------------  ---------------
     5      0.549025  1 O  pz                 9      0.385290  1 O  pz         
     6      0.360117  1 O  s                  2      0.194478  1 O  s          
    10     -0.138773  2 H  s                 12     -0.138773  3 H  s          
    11     -0.106606  2 H  s                 13     -0.106606  3 H  s          
     1     -0.087269  1 O  s          

 Vector    5  Occ=2.000000D+00  E=-2.896029D-01  Symmetry=b2
              MO Center= -3.0D-32,  1.0D-16,  1.1D-01, r^2= 5.9D-01
   Bfn.  Coefficient  Atom+Function         Bfn.  Coefficient  Atom+Function  
  ----- ------------  ---------------      ----- ------------  ---------------
     4      0.645949  1 O  py                 8      0.505319  1 O  py         

 Vector    6  Occ=0.000000D+00  E= 5.281584D-02  Symmetry=a1
              MO Center=  1.8D-15,  2.5D-18, -5.7D-01, r^2= 2.4D+00
[...]
     5     -0.289727  1 O  pz                 2      0.156988  1 O  s          
    10     -0.108052  2 H  s                 12     -0.108052  3 H  s          
     1     -0.089425  1 O  s          

 Vector    7  Occ=0.000000D+00  E= 1.424252D-01  Symmetry=b1
              MO Center= -1.7D-15,  6.2D-32, -5.4D-01, r^2= 2.5D+00
   Bfn.  Coefficient  Atom+Function         Bfn.  Coefficient  Atom+Function  
  ----- ------------  ---------------      ----- ------------  ---------------
    11      1.248444  2 H  s                 13     -1.248444  3 H  s          
     7      0.756678  1 O  px                 3      0.422270  1 O  px         
    10      0.096317  2 H  s                 12     -0.096317  3 H  s          

 Vector    8  Occ=0.000000D+00  E= 8.220227D-01  Symmetry=b1
              MO Center=  8.4D-15,  1.7D-30, -2.4D-01, r^2= 1.7D+00
   Bfn.  Coefficient  Atom+Function         Bfn.  Coefficient  Atom+Function  
  ----- ------------  ---------------      ----- ------------  ---------------
    10      0.976237  2 H  s                 12     -0.976237  3 H  s          
    11     -0.711170  2 H  s                 13      0.711170  3 H  s          
     7      0.434906  1 O  px                 3      0.251696  1 O  px         

 Vector    9  Occ=0.000000D+00  E= 8.511041D-01  Symmetry=a1
              MO Center= -8.3D-15, -6.3D-20, -3.4D-01, r^2= 1.4D+00
   Bfn.  Coefficient  Atom+Function         Bfn.  Coefficient  Atom+Function  
  ----- ------------  ---------------      ----- ------------  ---------------
    10      0.824028  2 H  s                 12      0.824028  3 H  s          
     5      0.638477  1 O  pz                11     -0.627167  2 H  s          
    13     -0.627167  3 H  s                  9     -0.283552  1 O  pz         
     6      0.267571  1 O  s                  2     -0.227419  1 O  s          
     1      0.043241  1 O  s          

 Vector   10  Occ=0.000000D+00  E= 8.905313D-01  Symmetry=b2
              MO Center= -3.0D-34, -4.9D-20,  1.1D-01, r^2= 1.1D+00
   Bfn.  Coefficient  Atom+Function         Bfn.  Coefficient  Atom+Function  
  ----- ------------  ---------------      ----- ------------  ---------------
     8     -1.039567  1 O  py                 4      0.958538  1 O  py         

 Vector   11  Occ=0.000000D+00  E= 9.446313D-01  Symmetry=a1
              MO Center= -4.2D-16, -2.3D-18,  2.4D-01, r^2= 1.3D+00
   Bfn.  Coefficient  Atom+Function         Bfn.  Coefficient  Atom+Function  
  ----- ------------  ---------------      ----- ------------  ---------------
     9      1.170213  1 O  pz                 5     -0.725158  1 O  pz         
    10      0.529140  2 H  s                 12      0.529140  3 H  s          
     2     -0.398093  1 O  s                 11     -0.083255  2 H  s          
    13     -0.083255  3 H  s                  1      0.067697  1 O  s          
     6      0.037407  1 O  s          

 Vector   12  Occ=0.000000D+00  E= 1.071200D+00  Symmetry=b1
              MO Center=  5.3D-16, -1.2D-32,  1.5D-01, r^2= 1.5D+00
   Bfn.  Coefficient  Atom+Function         Bfn.  Coefficient  Atom+Function  
  ----- ------------  ---------------      ----- ------------  ---------------
     7      1.710717  1 O  px                 3     -0.972703  1 O  px         
    11      0.862521  2 H  s                 13     -0.862521  3 H  s          
    10      0.091291  2 H  s                 12     -0.091291  3 H  s          

 Vector   13  Occ=0.000000D+00  E= 1.408712D+00  Symmetry=a1
              MO Center=  9.7D-17, -7.6D-18, -2.1D-01, r^2= 1.2D+00
   Bfn.  Coefficient  Atom+Function         Bfn.  Coefficient  Atom+Function  
  ----- ------------  ---------------      ----- ------------  ---------------
     6      2.708650  1 O  s                  2     -1.675904  1 O  s          
     9     -0.790069  1 O  pz                11     -0.615736  2 H  s          
    13     -0.615736  3 H  s                 10     -0.420990  2 H  s          
    12     -0.420990  3 H  s                  5      0.178600  1 O  pz         
     1      0.058967  1 O  s          


 center of mass
 --------------
 x =   0.00000000 y =   0.00000000 z =   0.08247061

 moments of inertia (a.u.)
 ------------------
           2.088005456816           0.000000000000           0.000000000000
           0.000000000000           6.591539676878           0.000000000000
           0.000000000000           0.000000000000           4.503534220062

     Multipole analysis of the density
     ---------------------------------

     L   x y z        total         alpha         beta         nuclear
     -   - - -        -----         -----         ----         -------
     0   0 0 0     -0.000000     -5.000000     -5.000000     10.000000

     1   1 0 0     -0.000000     -0.000000     -0.000000      0.000000
     1   0 1 0      0.000000      0.000000      0.000000      0.000000
     1   0 0 1     -0.943685     -0.408528     -0.408528     -0.126629

     2   2 0 0     -3.059746     -3.764157     -3.764157      4.468568
     2   1 1 0      0.000000      0.000000      0.000000      0.000000
     2   1 0 1      0.000000      0.000000      0.000000      0.000000
     2   0 2 0     -5.354265     -2.677132     -2.677132      0.000000
     2   0 1 1     -0.000000     -0.000000     -0.000000      0.000000
     2   0 0 2     -4.618736     -3.243321     -3.243321      1.867905


 Parallel integral file used       4 records with       0 large values

 Line search: 
     step= 1.00 grad=-2.8D-08 hess= 1.6D-08 energy=    -76.386117 mode=accept  
 new step= 1.00                   predicted energy=    -76.386117

          --------
          Step   3
          --------


                         Geometry "geometry" -> "geometry"
                         ---------------------------------

 Output coordinates in a.u. (scale by  1.000000000 to convert to a.u.)

  No.       Tag          Charge          X              Y              Z
 ---- ---------------- ---------- -------------- -------------- --------------
    1 O                    8.0000     0.00000000     0.00000000     0.20334070
    2 H                    1.0000    -1.49475210     0.00000000    -0.87667721
    3 H                    1.0000     1.49475210     0.00000000    -0.87667721

      Atomic Mass 
      ----------- 

      O                 15.994910
      H                  1.007825


 Effective nuclear repulsion energy (a.u.)       9.0108000765

            Nuclear Dipole moment (a.u.) 
            ----------------------------
        X                 Y               Z
 ---------------- ---------------- ----------------
     0.0000000000     0.0000000000    -0.1266287914

      Symmetry information
      --------------------

 Group name             C2v       
 Group number             16
 Group order               4
 No. of unique centers     2

      Symmetry unique atoms

     1    2


                                 NWChem DFT Module
                                 -----------------


                             Water in 6-31g basis set




 Summary of "ao basis" -> "ao basis" (cartesian)
 ------------------------------------------------------------------------------
       Tag                 Description            Shells   Functions and Types
 ---------------- ------------------------------  ------  ---------------------
 H                           6-31g                   2        2   2s
 O                           6-31g                   5        9   3s2p


      Symmetry analysis of basis
      --------------------------

        a1          7
        a2          0
        b1          4
        b2          2


  The DFT is already converged 

         Total DFT energy =    -76.386117287424


            General Information
            -------------------
          SCF calculation type: DFT
          Wavefunction type:  closed shell.
          No. of atoms     :     3
          No. of electrons :    10
           Alpha electrons :     5
            Beta electrons :     5
          Charge           :     0
          Spin multiplicity:     1
          Use of symmetry is: on ; symmetry adaption is: on 
          Maximum number of iterations:  30
          AO basis - number of functions:    13
                     number of shells:     9
          Convergence on energy requested:  1.00D-06
          Convergence on density requested:  1.00D-05
          Convergence on gradient requested:  5.00D-04

              XC Information
              --------------
                         B3LYP Method XC Potential
                     Hartree-Fock (Exact) Exchange  0.200          
                        Slater Exchange Functional  0.800 local    
                    Becke 1988 Exchange Functional  0.720 non-local
              Lee-Yang-Parr Correlation Functional  0.810          
                  VWN I RPA Correlation Functional  0.190 local    

             Grid Information
             ----------------
          Grid used for XC integration:  medium    
          Radial quadrature: Mura-Knowles        
          Angular quadrature: Lebedev. 
          Tag              B.-S. Rad. Rad. Pts. Rad. Cut. Ang. Pts.
          ---              ---------- --------- --------- ---------
          O                   0.60       49           5.0       434
          H                   0.35       45           6.0       434
          Grid pruning is: on 
          Number of quadrature shells:    94
          Spatial weights used:  Erf1

          Convergence Information
          -----------------------
          Convergence aids based upon iterative change in 
          total energy or number of iterations. 
          Levelshifting, if invoked, occurs when the 
          HOMO/LUMO gap drops below (HL_TOL):  1.00D-02
          DIIS, if invoked, will attempt to extrapolate 
          using up to (NFOCK): 10 stored Fock matrices.

                    Damping( 0%)  Levelshifting(0.5)       DIIS
                  --------------- ------------------- ---------------
          dE  on:    start            ASAP                start   
          dE off:    2 iters         30 iters            30 iters 


      Screening Tolerance Information
      -------------------------------
          Density screening/tol_rho:  1.00D-10
          AO Gaussian exp screening on grid/accAOfunc:  14
          CD Gaussian exp screening on grid/accCDfunc:  20
          XC Gaussian exp screening on grid/accXCfunc:  20
          Schwarz screening/accCoul:  1.00D-08



                            NWChem DFT Gradient Module
                            --------------------------


                             Water in 6-31g basis set



  charge          =   0.00
  wavefunction    = closed shell

  Using symmetry


                         DFT ENERGY GRADIENTS

    atom               coordinates                        gradient
                 x          y          z           x          y          z
   1 O       0.000000   0.000000   0.203341    0.000000   0.000000  -0.000004
   2 H      -1.494752   0.000000  -0.876677    0.000002   0.000000   0.000002
   3 H       1.494752   0.000000  -0.876677   -0.000002   0.000000   0.000002

                 ----------------------------------------
                 |  Time  |  1-e(secs)   |  2-e(secs)   |
                 ----------------------------------------
                 |  CPU   |       0.00   |       0.01   |
                 ----------------------------------------
                 |  WALL  |       0.00   |       0.01   |
                 ----------------------------------------

  Step       Energy      Delta E   Gmax     Grms     Xrms     Xmax   Walltime
  ---- ---------------- -------- -------- -------- -------- -------- --------
@    3     -76.38611729 -1.2D-08  0.00000  0.00000  0.00008  0.00018      1.3
                                     ok       ok       ok       ok  


      ----------------------
      Optimization converged
      ----------------------


  Step       Energy      Delta E   Gmax     Grms     Xrms     Xmax   Walltime
  ---- ---------------- -------- -------- -------- -------- -------- --------
@    3     -76.38611729 -1.2D-08  0.00000  0.00000  0.00008  0.00018      1.3
                                     ok       ok       ok       ok  



                         Geometry "geometry" -> "geometry"
                         ---------------------------------

 Output coordinates in a.u. (scale by  1.000000000 to convert to a.u.)

  No.       Tag          Charge          X              Y              Z
 ---- ---------------- ---------- -------------- -------------- --------------
    1 O                    8.0000     0.00000000     0.00000000     0.20334070
    2 H                    1.0000    -1.49475210     0.00000000    -0.87667721
    3 H                    1.0000     1.49475210     0.00000000    -0.87667721

      Atomic Mass 
      ----------- 

      O                 15.994910
      H                  1.007825


 Effective nuclear repulsion energy (a.u.)       9.0108000765

            Nuclear Dipole moment (a.u.) 
            ----------------------------
        X                 Y               Z
 ---------------- ---------------- ----------------
     0.0000000000     0.0000000000    -0.1266287914

      Symmetry information
      --------------------

 Group name             C2v       
 Group number             16
 Group order               4
 No. of unique centers     2

      Symmetry unique atoms

     1    2

 ==============================================================================
                                internuclear distances
 ------------------------------------------------------------------------------
       center one      |      center two      | atomic units |       a.u.
 ------------------------------------------------------------------------------
    2 H                |   1 O                |     1.84410  |     1.84410
    3 H                |   1 O                |     1.84410  |     1.84410
 ------------------------------------------------------------------------------
                         number of included internuclear distances:          2
 ==============================================================================



 ==============================================================================
                                 internuclear angles
 ------------------------------------------------------------------------------
        center 1       |       center 2       |       center 3       |  degrees
 ------------------------------------------------------------------------------
    2 H                |   1 O                |   3 H                |   108.30
 ------------------------------------------------------------------------------
                            number of included internuclear angles:          1
 ==============================================================================




 Task  times  cpu:        0.7s     wall:        1.2s


                                NWChem Input Module
                                -------------------


 Summary of allocated global arrays
-----------------------------------
  No active global arrays



                         GA Statistics for process    0
                         ------------------------------

       create   destroy   get      put      acc     scatter   gather  read&inc
calls:  730      709     4953     1335     1766        0        0      574     
number of processes/call 0.00e+00 0.00e+00 0.00e+00 0.00e+00 0.00e+00
bytes total:             1.59e+06 5.05e+05 7.42e+05 0.00e+00 0.00e+00 4.59e+03
bytes remote:            4.18e+05 8.94e+04 1.75e+05 0.00e+00 0.00e+00 0.00e+00
Max memory consumed for GA by this process: 39368 bytes

MA_summarize_allocated_blocks: starting scan ...
MA_summarize_allocated_blocks: scan completed: 0 heap blocks, 0 stack blocks
MA usage statistics:

	allocation statistics:
					      heap	     stack
					      ----	     -----
	current number of blocks	         0	         0
	maximum number of blocks	        25	        57
	current total bytes		         0	         0
	maximum total bytes		   1550504	  22510504
	maximum total K-bytes		      1551	     22511
	maximum total M-bytes		         2	        23


                                     CITATION
                                     --------
                Please cite the following reference when publishing
                           results obtained with NWChem:

          E. Apr, E. J. Bylaska, W. A. de Jong, N. Govind, K. Kowalski,
       T. P. Straatsma, M. Valiev, H. J. J. van Dam, Y. Alexeev, J. Anchell,
       V. Anisimov, F. W. Aquino, R. Atta-Fynn, J. Autschbach, N. P. Bauman,
     J. C. Becca, D. E. Bernholdt, K. Bhaskaran-Nair, S. Bogatko, P. Borowski,
        J. Boschen, J. Brabec, A. Bruner, E. Caut, Y. Chen, G. N. Chuev,
      C. J. Cramer, J. Daily, M. J. O. Deegan, T. H. Dunning Jr., M. Dupuis,
   K. G. Dyall, G. I. Fann, S. A. Fischer, A. Fonari, H. Frchtl, L. Gagliardi,
      J. Garza, N. Gawande, S. Ghosh, K. Glaesemann, A. W. Gtz, J. Hammond,
       V. Helms, E. D. Hermes, K. Hirao, S. Hirata, M. Jacquelin, L. Jensen,
   B. G. Johnson, H. Jnsson, R. A. Kendall, M. Klemm, R. Kobayashi, V. Konkov,
      S. Krishnamoorthy, M. Krishnan, Z. Lin, R. D. Lins, R. J. Littlefield,
      A. J. Logsdail, K. Lopata, W. Ma, A. V. Marenich, J. Martin del Campo,
   D. Mejia-Rodriguez, J. E. Moore, J. M. Mullin, T. Nakajima, D. R. Nascimento,
    J. A. Nichols, P. J. Nichols, J. Nieplocha, A. Otero-de-la-Roza, B. Palmer,
    A. Panyala, T. Pirojsirikul, B. Peng, R. Peverati, J. Pittner, L. Pollack,
   R. M. Richard, P. Sadayappan, G. C. Schatz, W. A. Shelton, D. W. Silverstein,
   D. M. A. Smith, T. A. Soares, D. Song, M. Swart, H. L. Taylor, G. S. Thomas,
            V. Tipparaju, D. G. Truhlar, K. Tsemekhman, T. Van Voorhis,
     . Vzquez-Mayagoitia, P. Verma, O. Villa, A. Vishnu, K. D. Vogiatzis,
        D. Wang, J. H. Weare, M. J. Williamson, T. L. Windus, K. Woliski,
        A. T. Wong, Q. Wu, C. Yang, Q. Yu, M. Zacharias, Z. Zhang, Y. Zhao,
                                and R. J. Harrison
                        "NWChem: Past, present, and future
                         J. Chem. Phys. 152, 184102 (2020)
                               doi:10.1063/5.0004997

                                      AUTHORS
                                      -------
     E. Apra, E. J. Bylaska, N. Govind, K. Kowalski, M. Valiev, W. A. de Jong,
      T. P. Straatsma, H. J. J. van Dam, D. Wang, T. L. Windus, N. P. Bauman,
       A. Panyala, J. Hammond, J. Autschbach, K. Bhaskaran-Nair, J. Brabec,
    K. Lopata, S. A. Fischer, S. Krishnamoorthy, M. Jacquelin, W. Ma, M. Klemm,
       O. Villa, Y. Chen, V. Anisimov, F. Aquino, S. Hirata, M. T. Hackler,
           Eric Hermes, L. Jensen, J. E. Moore, J. C. Becca, V. Konjkov,
            D. Mejia-Rodriguez, T. Risthaus, M. Malagoli, A. Marenich,
   A. Otero-de-la-Roza, J. Mullin, P. Nichols, R. Peverati, J. Pittner, Y. Zhao,
        P.-D. Fan, A. Fonari, M. J. Williamson, R. J. Harrison, J. R. Rehr,
      M. Dupuis, D. Silverstein, D. M. A. Smith, J. Nieplocha, V. Tipparaju,
      M. Krishnan, B. E. Van Kuiken, A. Vazquez-Mayagoitia, M. Swart, Q. Wu,
   T. Van Voorhis, A. A. Auer, M. Nooijen, L. D. Crosby, E. Brown, G. Cisneros,
     G. I. Fann, H. Fruchtl, J. Garza, K. Hirao, R. A. Kendall, J. A. Nichols,
       K. Tsemekhman, K. Wolinski, J. Anchell, D. E. Bernholdt, P. Borowski,
       T. Clark, D. Clerc, H. Dachsel, M. J. O. Deegan, K. Dyall, D. Elwood,
      E. Glendening, M. Gutowski, A. C. Hess, J. Jaffe, B. G. Johnson, J. Ju,
        R. Kobayashi, R. Kutteh, Z. Lin, R. Littlefield, X. Long, B. Meng,
      T. Nakajima, S. Niu, L. Pollack, M. Rosing, K. Glaesemann, G. Sandrone,
      M. Stave, H. Taylor, G. Thomas, J. H. van Lenthe, A. T. Wong, Z. Zhang.

 Total times  cpu:        0.7s     wall:        1.3s
